Formula,Smiles,EA (eV),IE (eV),Charge,Svg,Task Id,MW,Oxidation Hydrogen,Reduction Hydrogen,Oxidation Lithium,Reduction Lithium,Oxidation Magnesium,Reduction Magnesium,Point Group
H12 C8 O2,CC[C@@H]1C=COC=C1OC,-0.803,3.977,0,H12 C8 O2 - Open Babel Depiction                            H H H H H H H H H H H H O O   H12 C8 O2,mol-6967,140.18,0.937,-3.843,3.977,-0.803,3.307,-1.473,C1
H8 C8 O2,C#CC1=C(OC)OC=CC1,0.246,3.977,0,H8 C8 O2 - Open Babel Depiction                          O H H H H H H H H O   H8 C8 O2,mol-7713,136.148,0.937,-2.794,3.977,0.246,3.307,-0.424,C1
H24 C17 O6,CC(=O)c1c2CCCCc2c(c(c1O)O)OCCOCCOC,0.769,3.978,0,Multiple Molecules - Open Babel Depiction                                                         O O O O O O H H H H H H H H H H H H H H H H H H H H H H H H,mol-110190,324.369,0.938,-2.271,3.978,0.769,3.308,0.099,C1
H32 C19 O4,CC(C)(C)c1cc(c(c(c1)OC)OCOCCOC)C(C)(C)C,,3.979,0,Multiple Molecules - Open Babel Depiction                                                               O O O O H H H H H H H H H H H H H H H H H H H H H H H H H H H H H H H H,mol-85111,324.455,0.939,1647.7,3.979,1650.74,3.309,1650.07,C1
H6 C6 O2,C=CC1=COC=CO1,0.09,3.979,0,H6 C6 O2 - Open Babel Depiction                     O O H H H H H H   H6 C6 O2,mol-39244,110.111,0.939,-2.95,3.979,0.09,3.309,-0.58,Cs
H26 C16 O2,CC(C)(C)c1cc(c(cc1OC)OC)C(C)(C)C,-0.831,3.982,0,Multiple Molecules - Open Babel Depiction                                                    O O H H H H H H H H H H H H H H H H H H H H H H H H H H,mol-118885,125.188,0.942,-3.871,3.982,-0.831,3.312,-1.501,C2v
H8 C8 O2,C=CC1=COC=C(C=C)O1,0.243,3.982,0,H8 C8 O2 - Open Babel Depiction                          O H H H H H H H H O   H8 C8 O2,mol-39378,136.148,0.942,-2.797,3.982,0.243,3.312,-0.427,C2v
H10 C7 O2,C[C@@H]1C=COC=C1OC,-0.825,3.987,0,H10 C7 O2 - Open Babel Depiction                              H H H H H H H H H H O O   H10 C7 O2,mol-12023,126.153,0.947,-3.865,3.987,-0.825,3.317,-1.495,C1
H28 C17 O3,CC(C)(C)c1cc(cc(c1C(C)(C)C)OCOC)OC,-0.312,3.988,0,Multiple Molecules - Open Babel Depiction                                                        O O O H H H H H H H H H H H H H H H H H H H H H H H H H H H H,mol-174939,280.402,0.948,-3.352,3.988,-0.312,3.318,-0.982,C1
H34 C20 O5,CC(C)(C)c1cc(c(c(c1)OCOC)OCOCCOC)C(C)(C)C,,3.991,0,Multiple Molecules - Open Babel Depiction                                                                   O O O O O H H H H H H H H H H H H H H H H H H H H H H H H H H H H H H H H H H,mol-85063,354.481,0.951,1507.232,3.991,1510.272,3.321,1509.602,C1
H34 C20 O4,CC(C)(C)c1cc(c(cc1OCCOC)OCCOC)C(C)(C)C,-0.815,3.994,0,Multiple Molecules - Open Babel Depiction                                                                  O O O O H H H H H H H H H H H H H H H H H H H H H H H H H H H H H H H H H H,mol-85061,169.241,0.954,-3.855,3.994,-0.815,3.324,-1.485,C1
H8 C5 O2,C1(OC=CO1)(C)C,-1.138,3.996,0,Multiple Molecules - Open Babel Depiction                     O O H H H H H H H H,mol-57753,100.116,0.956,-4.178,3.996,-1.138,3.326,-1.808,Cs
H18 C27 O1,C(=C1c2c(C(=O)c3c1cccc3)cccc2)(c1ccccc1)c1ccccc1,1.92,3.998,0,Multiple Molecules - Open Babel Depiction                                                                     O H H H H H H H H H H H H H H H H H H,mol-37286,358.431,0.958,-1.12,3.998,1.92,3.328,1.25,C1
H8 C8 O2,C#CC1=CCC(=CO1)OC,0.408,3.999,0,H8 C8 O2 - Open Babel Depiction                          O H H H H H H H H O   H8 C8 O2,mol-7706,136.148,0.959,-2.632,3.999,0.408,3.329,-0.262,C1
H38 C22 O5,CC(C)(C)c1cc(cc(c1C(C)(C)C)OCOC)OCCOCCCOC,-0.321,4.001,0,Multiple Molecules - Open Babel Depiction                                                                         O O O O O H H H H H H H H H H H H H H H H H H H H H H H H H H H H H H H H H H H H H H,mol-84601,382.534,0.961,-3.361,4.001,-0.321,3.331,-0.991,C1
H8 C7 O3,c1(c(ccc(c1)O)O)OC,-0.5,4.002,0,Multiple Molecules - Open Babel Depiction                          O O O H H H H H H H H,mol-38465,140.137,0.962,-3.54,4.002,-0.5,3.332,-1.17,Cs
H30 C19 O5,CC(C)(C)c1c2CCCCc2c(c(c1O)O)OCCOCCOC,,4.003,0,Multiple Molecules - Open Babel Depiction                                                               O O O O O H H H H H H H H H H H H H H H H H H H H H H H H H H H H H H,mol-83418,338.439,0.963,1112.308,4.003,1115.348,3.333,1114.678,C1
H36 C21 O5,CC(C)(C)c1cc(c(cc1OCCOC)OCOCCOC)C(C)(C)C,-0.621,4.003,0,Multiple Molecules - Open Babel Depiction                                                                      O O O O O H H H H H H H H H H H H H H H H H H H H H H H H H H H H H H H H H H H H,mol-84979,368.508,0.963,-3.661,4.003,-0.621,3.333,-1.291,C1
H4 C6 O3,C#CC1=C(O)OC=CO1,0.418,4.004,0,H4 C6 O3 - Open Babel Depiction                     O O O H H H H   H4 C6 O3,mol-39224,124.094,0.964,-2.622,4.004,0.418,3.334,-0.252,C1
H32 C19 O4,CC(C)(C)c1cc(cc(c1C(C)(C)C)OC)OCOCCOC,-0.329,4.008,0,Multiple Molecules - Open Babel Depiction                                                               O O O O H H H H H H H H H H H H H H H H H H H H H H H H H H H H H H H H,mol-84581,324.455,0.968,-3.369,4.008,-0.329,3.338,-0.999,C1
H12 C12 O2,COC1=CCC=C(c2ccccc2)O1,0.249,4.011,0,H12 C12 O2 - Open Babel Depiction                                    O H H H H H H H H H H H H O   H12 C12 O2,mol-13006,188.222,0.971,-2.791,4.011,0.249,3.341,-0.421,C1
H26 C16 O2,CC(C)(C)c1ccc(c(c1C(C)(C)C)OC)OC,-0.254,4.012,0,Multiple Molecules - Open Babel Depiction                                                    O O H H H H H H H H H H H H H H H H H H H H H H H H H H,mol-110029,125.188,0.972,-3.294,4.012,-0.254,3.342,-0.924,C1
H6 C6 O6,Oc1c(O)c(O)c(c(c1O)O)O,0.059,4.013,0,Multiple Molecules - Open Babel Depiction                          O O O O O O H H H H H H,mol-26942,29.018,0.973,-2.981,4.013,0.059,3.343,-0.611,C1
H16 C21 O1,C(=C1c2c(c3c1cccc3)cccc2)c1ccc(cc1)OC,1.132,4.013,0,Multiple Molecules - Open Babel Depiction                                                        O H H H H H H H H H H H H H H H H,mol-33840,284.351,0.973,-1.908,4.013,1.132,3.343,0.462,C1
H8 C7 O2,C=CC1=CCC(=CO1)O,0.097,4.018,0,H8 C7 O2 - Open Babel Depiction                        O H H H H H H H H O   H8 C7 O2,mol-13204,124.137,0.978,-2.943,4.018,0.097,3.348,-0.573,C1
H24 C16 O2,CCc1c2CCCCc2c(c(c1O)O)C(C)(C)C,-0.355,4.019,0,Multiple Molecules - Open Babel Depiction                                                   O O H H H H H H H H H H H H H H H H H H H H H H H H,mol-117049,124.18,0.979,-3.395,4.019,-0.355,3.349,-1.025,C1
H30 C18 O3,CC(C)(C)c1cc(cc(c1OC)C(C)(C)C)OCCOC,-0.636,4.021,0,Multiple Molecules - Open Babel Depiction                                                           O O O H H H H H H H H H H H H H H H H H H H H H H H H H H H H H H,mol-84785,98.143,0.981,-3.676,4.021,-0.636,3.351,-1.306,C1
H16 C12 O4,COc1c2CCCCc2c(c(c1O)O)OC,-0.469,4.021,0,Multiple Molecules - Open Babel Depiction                                         O O O O H H H H H H H H H H H H H H H H,mol-116515,56.063,0.981,-3.509,4.021,-0.469,3.351,-1.139,C1
H10 C7 O3,COC1=CCC=C(OC)O1,-1.207,4.022,0,H10 C7 O3 - Open Babel Depiction                          H H H H H H H H H H O O O   H10 C7 O3,mol-12079,142.153,0.982,-4.247,4.022,-1.207,3.352,-1.877,Cs
H22 C15 O2,Cc1c2CCCCc2c(c(c1O)O)C(C)(C)C,-0.357,4.024,0,Multiple Molecules - Open Babel Depiction                                                O O H H H H H H H H H H H H H H H H H H H H H H,mol-117466,234.334,0.984,-3.397,4.024,-0.357,3.354,-1.027,C1
H8 C12 O2,C#CC1=C(c2ccccc2)OC=CO1,0.795,4.025,0,H8 C12 O2 - Open Babel Depiction                                  H H H H H H H H O O   H8 C12 O2,mol-40107,184.191,0.985,-2.245,4.025,0.795,3.355,0.125,C1
H20 C14 O5,COCCOc1c2CCCCc2c(c(c1O)O)OC,-0.459,4.027,0,Multiple Molecules - Open Babel Depiction                                                O O O O O H H H H H H H H H H H H H H H H H H H H,mol-117179,268.306,0.987,-3.499,4.027,-0.459,3.357,-1.129,C1
H10 C8 O2,C=CC1=CCC=C(OC)O1,0.156,4.027,0,H10 C8 O2 - Open Babel Depiction                           H H H H H H H H H H O O   H10 C8 O2,mol-10096,138.164,0.987,-2.884,4.027,0.156,3.357,-0.514,C1
H14 C13 O1,CCC1=COC=C(C1)c1ccccc1,0.102,4.027,0,H14 C13 O1 - Open Babel Depiction                                      H H H H H H H H H H H H H H O   H14 C13 O1,mol-8266,186.25,0.987,-2.938,4.027,0.102,3.357,-0.568,C1
H8 C8 O2,C#CC1=COC=C(C1)OC,0.313,4.028,0,H8 C8 O2 - Open Babel Depiction                          O H H H H H H H H O   H8 C8 O2,mol-7710,136.148,0.988,-2.727,4.028,0.313,3.358,-0.357,C1
H8 C8 O2,C#CC1=C(CC)OC=CO1,0.347,4.029,0,H8 C8 O2 - Open Babel Depiction                          O H H H H H H H H O   H8 C8 O2,mol-39431,136.148,0.989,-2.693,4.029,0.347,3.359,-0.323,C1
H8 C6 O2,CC1=C(O)OC=CC1,-0.502,4.029,0,H8 C6 O2 - Open Babel Depiction                      O O H H H H H H H H   H8 C6 O2,mol-9714,112.127,0.989,-3.542,4.029,-0.502,3.359,-1.172,Cs
H8 C12 O2,C#CC1=COC(=CO1)c1ccccc1,0.394,4.03,0,H8 C12 O2 - Open Babel Depiction                                  H H H H H H H H O O   H8 C12 O2,mol-39403,184.191,0.99,-2.646,4.03,0.394,3.36,-0.276,C1
H26 C16 O2,CC(C)(C)c1cc(c(cc1C(C)(C)C)OC)OC,-0.863,4.031,0,Multiple Molecules - Open Babel Depiction                                                    O O H H H H H H H H H H H H H H H H H H H H H H H H H H,mol-110017,125.188,0.991,-3.903,4.031,-0.863,3.361,-1.533,C1
H10 C6 O1,C(=C)(/C=C/OC)C,0.061,4.032,0,Multiple Molecules - Open Babel Depiction                       O H H H H H H H H H H,mol-43059,98.143,0.992,-2.979,4.032,0.061,3.362,-0.609,C1
H14 C17 O1,c1ccc(cc1)C1=C(c2ccccc2)OC=CC1,0.572,4.032,0,H14 C17 O1 - Open Babel Depiction                                              H H H H H H H H H H H H H H O   H14 C17 O1,mol-8466,234.292,0.992,-2.468,4.032,0.572,3.362,-0.098,C1
H30 C18 O3,CC(C)(C)c1ccc(c(c1C(C)(C)C)OCCOC)OC,-0.272,4.034,0,Multiple Molecules - Open Babel Depiction                                                           O O O H H H H H H H H H H H H H H H H H H H H H H H H H H H H H H,mol-84575,98.143,0.994,-3.312,4.034,-0.272,3.364,-0.942,C1
H28 C17 O3,CC(C)(C)c1cc(cc(c1C(C)(C)C)OC)OCOC,-0.306,4.036,0,Multiple Molecules - Open Babel Depiction                                                        O O O H H H H H H H H H H H H H H H H H H H H H H H H H H H H,mol-110121,280.402,0.996,-3.346,4.036,-0.306,3.366,-0.976,C1
H12 C12 O2,COC1=CCC(=CO1)c1ccccc1,0.181,4.036,0,H12 C12 O2 - Open Babel Depiction                                    O H H H H H H H H H H H H O   H12 C12 O2,mol-12899,188.222,0.996,-2.859,4.036,0.181,3.366,-0.489,C1
H12 C8 O2,CC[C@@H]1C=COC(=C1)OC,-0.721,4.036,0,H12 C8 O2 - Open Babel Depiction                                 H H H H H H H H H H H H O O   H12 C8 O2,mol-11477,140.18,0.996,-3.761,4.036,-0.721,3.366,-1.391,C1
H12 C13 O1,C=CC1=COC=C(C1)c1ccccc1,0.404,4.038,0,H12 C13 O1 - Open Babel Depiction                                     O H H H H H H H H H H H H   H12 C13 O1,mol-8006,184.234,0.998,-2.636,4.038,0.404,3.368,-0.266,C1
H24 C20 O1,C(=CO)(c1c(cc(cc1C)C)C)c1c(cc(cc1C)C)C,-0.181,4.039,0,Multiple Molecules - Open Babel Depiction                                                          O H H H H H H H H H H H H H H H H H H H H H H H H,mol-61269,280.404,0.999,-3.221,4.039,-0.181,3.369,-0.851,C1
H16 C12 O2,Cc1c2CCCCc2c(C)c(c1O)O,-0.406,4.039,0,Multiple Molecules - Open Babel Depiction                                       O O H H H H H H H H H H H H H H H H,mol-116428,96.127,0.999,-3.446,4.039,-0.406,3.369,-1.076,C1
H28 C18 O7,COCCOCCOc1c2CCCCc2c(c(c1O)O)OCCOC,-0.878,4.039,0,Multiple Molecules - Open Babel Depiction                                                              O O O O O O O H H H H H H H H H H H H H H H H H H H H H H H H H H H H,mol-83252,356.411,0.999,-3.918,4.039,-0.878,3.369,-1.548,C1
H18 C13 O2,CCc1c2CCCCc2c(C)c(c1O)O,-0.411,4.039,0,Multiple Molecules - Open Babel Depiction                                          O O H H H H H H H H H H H H H H H H H H,mol-116539,206.281,0.999,-3.451,4.039,-0.411,3.369,-1.081,C1
H12 C12 O1,CC1=COC=C(C1)c1ccccc1,0.126,4.041,0,H12 C12 O1 - Open Babel Depiction                                   O H H H H H H H H H H H H   H12 C12 O1,mol-12356,172.223,1.001,-2.914,4.041,0.126,3.371,-0.544,C1
H10 C7 O2,C[C@@H]1C=COC(=C1)OC,-0.858,4.043,0,H10 C7 O2 - Open Babel Depiction                              H H H H H H H H H H O O   H10 C7 O2,mol-12031,126.153,1.003,-3.898,4.043,-0.858,3.373,-1.528,C1
H10 C8 O2,Cc1c(O)cc(c(c1)O)C,-0.829,4.044,0,Multiple Molecules - Open Babel Depiction                            O O H H H H H H H H H H,mol-25259,69.082,1.004,-3.869,4.044,-0.829,3.374,-1.499,Cs
H12 C9 O1,C=CC1=C(CC)OC=CC1,-0.019,4.044,0,H12 C9 O1 - Open Babel Depiction                             H H H H H H H H H H H H O   H12 C9 O1,mol-8096,136.191,1.004,-3.059,4.044,-0.019,3.374,-0.689,C1
H12 C13 O1,C=CC1=C(c2ccccc2)OC=CC1,0.581,4.046,0,H12 C13 O1 - Open Babel Depiction                                     O H H H H H H H H H H H H   H12 C13 O1,mol-8143,184.234,1.006,-2.459,4.046,0.581,3.376,-0.089,C1
H20 C14 O2,CCc1c2CCCCc2c(CC)c(c1O)O,-0.353,4.047,0,Multiple Molecules - Open Babel Depiction                                             O O H H H H H H H H H H H H H H H H H H H H,mol-117007,110.154,1.007,-3.393,4.047,-0.353,3.377,-1.023,C1
H12 C9 O1,C=CC1=COC(=CC1)CC,0.162,4.048,0,H12 C9 O1 - Open Babel Depiction                             H H H H H H H H H H H H O   H12 C9 O1,mol-8080,136.191,1.008,-2.878,4.048,0.162,3.378,-0.508,C1
H32 C19 O4,CC(C)(C)c1cc(c(c(c1)OCOCCOC)OC)C(C)(C)C,-0.971,4.049,0,Multiple Molecules - Open Babel Depiction                                                               O O O O H H H H H H H H H H H H H H H H H H H H H H H H H H H H H H H H,mol-85050,324.455,1.009,-4.011,4.049,-0.971,3.379,-1.641,C1
H14 C11 O4,COc1c2CCCCc2c(c(c1O)O)O,-0.435,4.05,0,Multiple Molecules - Open Babel Depiction                                      O O O O H H H H H H H H H H H H H H,mol-116702,210.226,1.01,-3.475,4.05,-0.435,3.38,-1.105,C1
H6 C5 O3,C1C=C(O)OC=C1O,-0.495,4.052,0,H6 C5 O3 - Open Babel Depiction                    O O O H H H H H H   H6 C5 O3,mol-8535,114.099,1.012,-3.535,4.052,-0.495,3.382,-1.165,C1
H8 C6 O2,C[C@@H]1C=COC=C1O,-0.556,4.054,0,H8 C6 O2 - Open Babel Depiction                           O O H H H H H H H H   H8 C6 O2,mol-9667,112.127,1.014,-3.596,4.054,-0.556,3.384,-1.226,C1
H8 C6 O3,COC1=CCC=C(O)O1,-0.448,4.054,0,H8 C6 O3 - Open Babel Depiction                       O H H H H H H H H O O   H8 C6 O3,mol-9784,128.126,1.014,-3.488,4.054,-0.448,3.384,-1.118,C1
H28 C17 O3,CC(C)(C)c1cc(c(cc1C(C)(C)C)OCOC)OC,,4.055,0,Multiple Molecules - Open Babel Depiction                                                        O O O H H H H H H H H H H H H H H H H H H H H H H H H H H H H,mol-120759,280.402,1.015,,4.055,,3.385,,C1
H10 C8 O1,C=CC1=CC=C[C@@H]1OC,0.847,4.055,0,Multiple Molecules - Open Babel Depiction                           O H H H H H H H H H H,mol-89563,122.164,1.015,-2.193,4.055,0.847,3.385,0.177,C1
H14 C13 O1,CCC1=CCC(=CO1)c1ccccc1,0.133,4.057,0,H14 C13 O1 - Open Babel Depiction                                      H H H H H H H H H H H H H H O   H14 C13 O1,mol-8259,186.25,1.017,-2.907,4.057,0.133,3.387,-0.537,C1
H10 C8 O2,Cc1c(C)c(O)ccc1O,-0.774,4.058,0,Multiple Molecules - Open Babel Depiction                            O O H H H H H H H H H H,mol-24843,69.082,1.018,-3.814,4.058,-0.774,3.388,-1.444,C2v
H22 C16 O2,C=Cc1c2CCCCc2c(c(c1O)O)C(C)(C)C,0.285,4.059,0,Multiple Molecules - Open Babel Depiction                                                  O O H H H H H H H H H H H H H H H H H H H H H H,mol-117420,123.172,1.019,-2.755,4.059,0.285,3.389,-0.385,C1
H14 C9 O1,CCC1=C(CC)OC=CC1,-0.88,4.061,0,H14 C9 O1 - Open Babel Depiction                              H H H H H H H H H H H H H H O   H14 C9 O1,mol-8152,138.207,1.021,-3.92,4.061,-0.88,3.391,-1.55,C1
H16 C12 O3,Cc1c2CCCCc2c(c(c1O)O)OC,-0.354,4.062,0,Multiple Molecules - Open Babel Depiction                                        O O O H H H H H H H H H H H H H H H H,mol-116847,208.254,1.022,-3.394,4.062,-0.354,3.392,-1.024,C1
H14 C17 O1,c1ccc(cc1)C1=COC=C(C1)c1ccccc1,0.364,4.062,0,H14 C17 O1 - Open Babel Depiction                                              H H H H H H H H H H H H H H O   H14 C17 O1,mol-8386,234.292,1.022,-2.676,4.062,0.364,3.392,-0.306,Cs
H28 C17 O3,CC(C)(C)c1cc(c(cc1OC)OCOC)C(C)(C)C,-0.783,4.064,0,Multiple Molecules - Open Babel Depiction                                                        O O O H H H H H H H H H H H H H H H H H H H H H H H H H H H H,mol-122288,280.402,1.024,-3.823,4.064,-0.783,3.394,-1.453,Cs
H14 C10 O3,c1(c(cc(cc1OC)C)OC)OC,-0.61,4.065,0,Multiple Molecules - Open Babel Depiction                                   O O O H H H H H H H H H H H H H H,mol-42959,182.216,1.025,-3.65,4.065,-0.61,3.395,-1.28,C1
H26 C16 O2,CC(C)(C)c1cc(cc(c1OC)C(C)(C)C)OC,-0.755,4.066,0,Multiple Molecules - Open Babel Depiction                                                    O O H H H H H H H H H H H H H H H H H H H H H H H H H H,mol-120039,125.188,1.026,-3.795,4.066,-0.755,3.396,-1.425,C1
H10 C8 O1,C=CC1=C(C)OC=CC1,0.017,4.067,0,H10 C8 O1 - Open Babel Depiction                          H H H H H H H H H H O   H10 C8 O1,mol-13621,122.164,1.027,-3.023,4.067,0.017,3.397,-0.653,Cs
H6 C7 O2,C#CC1=COC(=CO1)C,0.394,4.067,0,H6 C7 O2 - Open Babel Depiction                       O O H H H H H H   H6 C7 O2,mol-39336,122.121,1.027,-2.646,4.067,0.394,3.397,-0.276,Cs
H30 C18 O4,CC(C)(C)c1cc(cc(c1C(C)(C)C)OCOC)OCOC,-0.345,4.067,0,Multiple Molecules - Open Babel Depiction                                                            O O O O H H H H H H H H H H H H H H H H H H H H H H H H H H H H H H,mol-84582,155.214,1.027,-3.385,4.067,-0.345,3.397,-1.015,C1
H34 C20 O4,CC(C)(C)c1cc(cc(c1OCCOC)C(C)(C)C)OCCOC,-0.734,4.069,0,Multiple Molecules - Open Babel Depiction                                                                  O O O O H H H H H H H H H H H H H H H H H H H H H H H H H H H H H H H H H H,mol-84620,169.241,1.029,-3.774,4.069,-0.734,3.399,-1.404,C1
H38 C22 O5,CC(C)(C)c1cc(c(cc1OCCOCCCOC)OCOC)C(C)(C)C,-0.919,4.069,0,Multiple Molecules - Open Babel Depiction                                                                         O O O O O H H H H H H H H H H H H H H H H H H H H H H H H H H H H H H H H H H H H H H,mol-85117,382.534,1.029,-3.959,4.069,-0.919,3.399,-1.589,C1
H12 C8 O1,CCC1=C(C)OC=CC1,-0.796,4.07,0,H12 C8 O1 - Open Babel Depiction                           H H H H H H H H H H H H O   H12 C8 O1,mol-5643,124.18,1.03,-3.836,4.07,-0.796,3.4,-1.466,C1
H12 C14 O3,C(=C\c1ccc(cc1)O)\c1cc(O)cc(c1)O,0.632,4.076,0,Multiple Molecules - Open Babel Depiction                                          O O O H H H H H H H H H H H H,mol-35228,228.243,1.036,-2.408,4.076,0.632,3.406,-0.038,C1
H16 C18 O2,[C@]12(c3ccccc3)OO[C@](CC1)(C=C2)c1ccccc1,2.49,4.077,0,Multiple Molecules - Open Babel Depiction                                                             O O H H H H H H H H H H H H H H H H,mol-57998,132.159,1.037,-0.55,4.077,2.49,3.407,1.82,Cs
H6 C4 O2,[C@H]1(OC=CO1)C,-1.432,4.079,0,Multiple Molecules - Open Babel Depiction                  O O H H H H H H,mol-49753,43.045,1.039,-4.472,4.079,-1.432,3.409,-2.102,Cs
H10 C9 O1,C=CC1=C(C=C)OC=CC1,0.672,4.079,0,H10 C9 O1 - Open Babel Depiction                            H H H H H H H H H H O   H10 C9 O1,mol-8017,134.175,1.039,-2.368,4.079,0.672,3.409,0.002,Cs
H24 C16 O6,COCCOc1c2CCCCc2c(c(c1O)O)OCCOC,-0.441,4.079,0,Multiple Molecules - Open Babel Depiction                                                       O O O O O O H H H H H H H H H H H H H H H H H H H H H H H H,mol-117180,156.179,1.039,-3.481,4.079,-0.441,3.409,-1.111,C1
H10 C8 O2,O(C)c1ccc(cc1)OC,-0.536,4.08,0,Multiple Molecules - Open Babel Depiction                            O O H H H H H H H H H H,mol-22637,69.082,1.04,-3.576,4.08,-0.536,3.41,-1.206,C2h