Formula,Smiles,EA (eV),IE (eV),Charge,Svg,Task Id,MW,Oxidation Hydrogen,Reduction Hydrogen,Oxidation Lithium,Reduction Lithium,Oxidation Magnesium,Reduction Magnesium,Point Group
H8 C7 O4,COC1=CCC(=CO1)C(=O)O,0.741,4.43,0,H8 C7 O4 - Open Babel Depiction                          O H H H H H H H H O O O   H8 C7 O4,mol-13339,156.136,1.39,-2.299,4.43,0.741,3.76,0.071,C1
H12 C12 O1,CC1=COC=C[C@H]1c1ccccc1,-0.406,4.431,0,H12 C12 O1 - Open Babel Depiction                                   O H H H H H H H H H H H H   H12 C12 O1,mol-12565,172.223,1.391,-3.446,4.431,-0.406,3.761,-1.076,C1
H14 C11 O1,C(C)(C)[C@H]1c2c(OC1)cccc2,-0.506,4.433,0,Multiple Molecules - Open Babel Depiction                                   O H H H H H H H H H H H H H H,mol-33815,162.228,1.393,-3.546,4.433,-0.506,3.763,-1.176,C1
H10 C9 O1,C[C@H]1c2c(OC1)cccc2,-0.433,4.437,0,Multiple Molecules - Open Babel Depiction                                  O H H H H H H H H H H,mol-30424,134.175,1.397,-3.473,4.437,-0.433,3.767,-1.103,C1
H12 C12 O6,C1Cc2cc(c(cc2C(C1)(C(=O)O)C(=O)O)O)O,0.343,4.438,0,Multiple Molecules - Open Babel Depiction                                         O O O O O O H H H H H H H H H H H H,mol-117185,42.037,1.398,-2.697,4.438,0.343,3.768,-0.327,C1
H18 C14 O6,COCCOc1c2CCCCc2c(c(c1O)O)C(=O)O,0.438,4.438,0,Multiple Molecules - Open Babel Depiction                                                O O O O O O H H H H H H H H H H H H H H H H H H,mol-117404,141.145,1.398,-2.602,4.438,0.438,3.768,-0.232,C1
H16 C14 O4,CC(=O)C1(CCCc2cc(c(cc12)O)O)C(=O)C,0.668,4.44,0,Multiple Molecules - Open Babel Depiction                                             O O O O H H H H H H H H H H H H H H H H,mol-116640,124.137,1.4,-2.372,4.44,0.668,3.77,-0.002,C1
H30 C18 O4,CC(C)(C)c1ccc(c(c1OCOC)C(C)(C)C)OCOC,-0.428,4.447,0,Multiple Molecules - Open Babel Depiction                                                            O O O O H H H H H H H H H H H H H H H H H H H H H H H H H H H H H H,mol-84639,155.214,1.407,-3.468,4.447,-0.428,3.777,-1.098,C1
H34 C20 O5,CC(C)(C)c1ccc(c(c1OCOCCOC)C(C)(C)C)OCOC,-0.384,4.449,0,Multiple Molecules - Open Babel Depiction                                                                   O O O O O H H H H H H H H H H H H H H H H H H H H H H H H H H H H H H H H H H,mol-84608,354.481,1.409,-3.424,4.449,-0.384,3.779,-1.054,C1
H6 C7 O4,C=CC1=C(C(=O)O)OC=CO1,1.286,4.451,0,H6 C7 O4 - Open Babel Depiction                         O H H H H H H O O O   H6 C7 O4,mol-39337,154.12,1.411,-1.754,4.451,1.286,3.781,0.616,C1
H6 C7 O4,C=CC1=COC(=CO1)C(=O)O,0.874,4.453,0,H6 C7 O4 - Open Babel Depiction                         O H H H H H H O O O   H6 C7 O4,mol-39320,154.12,1.413,-2.166,4.453,0.874,3.783,0.204,Cs
H26 C16 O2,C(CC(C)(C)C)(C)(C)c1ccc(cc1)OCCO,-0.745,4.454,0,Multiple Molecules - Open Babel Depiction                                                    O O H H H H H H H H H H H H H H H H H H H H H H H H H H,mol-37534,125.188,1.414,-3.785,4.454,-0.745,3.784,-1.415,C1
H36 C21 O5,CC(C)(C)c1ccc(c(c1OCCOC)OCOCCOC)C(C)(C)C,-0.623,4.454,0,Multiple Molecules - Open Babel Depiction                                                                      O O O O O H H H H H H H H H H H H H H H H H H H H H H H H H H H H H H H H H H H H,mol-84858,368.508,1.414,-3.663,4.454,-0.623,3.784,-1.293,C1
H6 C6 O4,CC1=COC=C(C(=O)O)O1,0.774,4.455,0,H6 C6 O4 - Open Babel Depiction                       O O O O H H H H H H   H6 C6 O4,mol-39299,142.109,1.415,-2.266,4.455,0.774,3.785,0.104,Cs
H26 C21 O1,C(=C\1/C=C(C(C)(C)C)C(=O)C(=C1)C(C)(C)C)\c1ccccc1,1.769,4.456,0,Multiple Molecules - Open Babel Depiction                                                             O H H H H H H H H H H H H H H H H H H H H H H H H H H,mol-36587,294.431,1.416,-1.271,4.456,1.769,3.786,1.099,C1
H14 C14 O3,C#Cc1c2CCCCc2c(C(=O)C)c(c1O)O,0.975,4.456,0,Multiple Molecules - Open Babel Depiction                                           O O O H H H H H H H H H H H H H H,mol-116548,230.259,1.416,-2.065,4.456,0.975,3.786,0.305,C1
H12 C14 O2,C#Cc1c2CCCCc2c(C#C)c(c1O)O,0.732,4.459,0,Multiple Molecules - Open Babel Depiction                                         O O H H H H H H H H H H H H,mol-116457,106.122,1.419,-2.308,4.459,0.732,3.789,0.062,C1
H8 C7 O4,CCC1=COC(=CO1)C(=O)O,0.773,4.459,0,H8 C7 O4 - Open Babel Depiction                          O H H H H H H H H O O O   H8 C7 O4,mol-39391,156.136,1.419,-2.267,4.459,0.773,3.789,0.103,C1
H10 C8 O2,C=CC1=COC=C[C@H]1OC,0.279,4.46,0,H10 C8 O2 - Open Babel Depiction                                H H H H H H H H H H O O   H10 C8 O2,mol-4091,138.164,1.42,-2.761,4.46,0.279,3.79,-0.391,C1
H8 C11 O4,c1ccc(cc1)C1=C(C(=O)O)OC=CO1,1.231,4.461,0,H8 C11 O4 - Open Babel Depiction                                  O H H H H H H H H O O O   H8 C11 O4,mol-39335,204.179,1.421,-1.809,4.461,1.231,3.791,0.561,C1
H12 C9 O1,Cc1c(C)cc(cc1O)C,-0.55,4.462,0,Multiple Molecules - Open Babel Depiction                              O H H H H H H H H H H H H,mol-20462,136.191,1.422,-3.59,4.462,-0.55,3.792,-1.22,Cs
H36 C21 O5,CC(C)(C)c1ccc(c(c1OCCOC)C(C)(C)C)OCOCCOC,,4.463,0,Multiple Molecules - Open Babel Depiction                                                                      O O O O O H H H H H H H H H H H H H H H H H H H H H H H H H H H H H H H H H H H H,mol-84658,368.508,1.423,,4.463,,3.793,,C1
H8 C7 O3,COC1=CC=C[C@H]1C(=O)O,-0.018,4.463,0,H8 C7 O3 - Open Babel Depiction                         O H H H H H H H H O O   H8 C7 O3,mol-25818,140.137,1.423,-3.058,4.463,-0.018,3.793,-0.688,C1
H18 C16 O4,[C@H]([C@@H](O)c1ccc(cc1)OC)(O)c1ccc(cc1)OC,-0.467,4.464,0,Multiple Molecules - Open Babel Depiction                                                            O O O O H H H H H H H H H H H H H H H H H H,mol-47198,137.156,1.424,-3.507,4.464,-0.467,3.794,-1.137,C1
H14 C15 O6,O[C@H]1[C@H](Oc2c(C1)c(O)cc(c2)O)c1cc(O)c(cc1)O,-0.17,4.464,0,Multiple Molecules - Open Babel Depiction                                                 O O O O O O H H H H H H H H H H H H H H,mol-21546,290.268,1.424,-3.21,4.464,-0.17,3.794,-0.84,C1
H10 C11 O2,c1ccc(cc1)C1=COC=C[C@H]1O,0.228,4.468,0,H10 C11 O2 - Open Babel Depiction                                      O H H H H H H H H H H O   H10 C11 O2,mol-13320,174.196,1.428,-2.812,4.468,0.228,3.798,-0.442,C1
H12 C13 O1,C=CC1=C[C@@H](C=CO1)c1ccccc1,0.212,4.468,0,H12 C13 O1 - Open Babel Depiction                                     O H H H H H H H H H H H H   H12 C13 O1,mol-8243,184.234,1.428,-2.828,4.468,0.212,3.798,-0.458,C1
H10 C7 O3,CO[C@@H]1C=COC(=C1)OC,-0.707,4.469,0,H10 C7 O3 - Open Babel Depiction                               H H H H H H H H H H O O O   H10 C7 O3,mol-12058,142.153,1.429,-3.747,4.469,-0.707,3.799,-1.377,C1
H8 C5 O1,C1CCOC=C1,-1.021,4.47,0,Multiple Molecules - Open Babel Depiction                    O H H H H H H H H,mol-27834,84.116,1.43,-4.061,4.47,-1.021,3.8,-1.691,C1
H22 C16 O7,COCCOCCOc1c2CCCCc2c(c(c1O)O)C(=O)O,0.422,4.47,0,Multiple Molecules - Open Babel Depiction                                                       O O O O O O O H H H H H H H H H H H H H H H H H H H H H H,mol-117595,326.342,1.43,-2.618,4.47,0.422,3.8,-0.248,C1
H8 C7 O4,CCC1=C(C(=O)O)OC=CO1,0.706,4.473,0,H8 C7 O4 - Open Babel Depiction                          O H H H H H H H H O O O   H8 C7 O4,mol-39372,156.136,1.433,-2.334,4.473,0.706,3.803,0.036,C1
H26 C18 O1,c1(c(c(C2CCCCC2)ccc1)O)C1CCCCC1,-0.501,4.474,0,Multiple Molecules - Open Babel Depiction                                                       O H H H H H H H H H H H H H H H H H H H H H H H H H H,mol-42030,258.398,1.434,-3.541,4.474,-0.501,3.804,-1.171,C1
H8 C6 O3,CO[C@@H]1C=COC=C1O,-0.51,4.474,0,H8 C6 O3 - Open Babel Depiction                            O H H H H H H H H O O   H8 C6 O3,mol-9955,128.126,1.434,-3.55,4.474,-0.51,3.804,-1.18,C1
H42 C24 O6,CC(C)(C)c1cc(c(cc1C(C)(C)C)OCOCCOC)OCCOCCCOC,,4.476,0,Multiple Molecules - Open Babel Depiction                                                                                O O O O O O H H H H H H H H H H H H H H H H H H H H H H H H H H H H H H H H H H H H H H H H H H,mol-84714,71.098,1.436,,4.476,,3.806,,C1
H14 C13 O5,CC(=O)c1c2CCCCc2c(c(c1O)O)C(=O)O,1.43,4.476,0,Multiple Molecules - Open Babel Depiction                                           O O O O O H H H H H H H H H H H H H H,mol-102224,250.247,1.436,-1.61,4.476,1.43,3.806,0.76,C1
H18 C9 O1,C(=C(C)C)(CC[C@@H](C)O)C,-0.895,4.477,0,Multiple Molecules - Open Babel Depiction                                 O H H H H H H H H H H H H H H H H H H,mol-34376,142.239,1.437,-3.935,4.477,-0.895,3.807,-1.565,C1