Formula,Smiles,EA (eV),IE (eV),Charge,Svg,Task Id,MW,Oxidation Hydrogen,Reduction Hydrogen,Oxidation Lithium,Reduction Lithium,Oxidation Magnesium,Reduction Magnesium,Point Group
H10 C7 O2,CC1=COC=C(C1)OC,-0.916,3.802,0,H10 C7 O2 - Open Babel Depiction                         H H H H H H H H H H O O   H10 C7 O2,mol-12036,126.153,0.762,-3.956,3.802,-0.916,3.132,-1.586,C1
H8 C7 O3,C=CC1=COC=C(OC)O1,0.115,3.805,0,H8 C7 O3 - Open Babel Depiction                         O H H H H H H H H O O   H8 C7 O3,mol-39382,140.137,0.765,-2.925,3.805,0.115,3.135,-0.555,C1
H12 C8 O2,CCC1=COC(=CO1)CC,-0.718,3.806,0,H12 C8 O2 - Open Babel Depiction                            H H H H H H H H H H H H O O   H12 C8 O2,mol-39422,140.18,0.766,-3.758,3.806,-0.718,3.136,-1.388,C2
H8 C6 O2,CC1=C(C)OC=CO1,-0.603,3.806,0,H8 C6 O2 - Open Babel Depiction                      O O H H H H H H H H   H8 C6 O2,mol-39302,112.127,0.766,-3.643,3.806,-0.603,3.136,-1.273,Cs
H4 C4 O4,C1=C(O)OC=C(O)O1,-0.943,3.807,0,H4 C4 O4 - Open Babel Depiction                  O O O O H H H H   H4 C4 O4,mol-39423,116.072,0.767,-3.983,3.807,-0.943,3.137,-1.613,C2
H12 C8 O2,CCC1=COC=C(C1)OC,-0.854,3.807,0,H12 C8 O2 - Open Babel Depiction                            H H H H H H H H H H H H O O   H12 C8 O2,mol-6526,140.18,0.767,-3.894,3.807,-0.854,3.137,-1.524,C1
H36 C21 O5,CC(C)(C)c1c(ccc(c1C(C)(C)C)OCOCCOC)OCCOC,0.035,3.808,0,Multiple Molecules - Open Babel Depiction                                                                      O O O O O H H H H H H H H H H H H H H H H H H H H H H H H H H H H H H H H H H H H,mol-85153,368.508,0.768,-3.005,3.808,0.035,3.138,-0.635,C1
H10 C7 O2,CC1=C(OC)OC=CC1,-0.872,3.809,0,H10 C7 O2 - Open Babel Depiction                         H H H H H H H H H H O O   H10 C7 O2,mol-12063,126.153,0.769,-3.912,3.809,-0.872,3.139,-1.542,C1
H8 C6 O2,CC1=COC=C(C)O1,-0.664,3.81,0,H8 C6 O2 - Open Babel Depiction                      O O H H H H H H H H   H8 C6 O2,mol-39339,112.127,0.77,-3.704,3.81,-0.664,3.14,-1.334,C2v
H42 C24 O6,CC(C)(C)c1c(ccc(c1C(C)(C)C)OCOCCOC)OCCOCCCOC,,3.815,0,Multiple Molecules - Open Babel Depiction                                                                                O O O O O O H H H H H H H H H H H H H H H H H H H H H H H H H H H H H H H H H H H H H H H H H H,mol-85170,71.098,0.775,,3.815,,3.145,,C1
H10 C11 O2,CC1=C(c2ccccc2)OC=CO1,0.027,3.816,0,H10 C11 O2 - Open Babel Depiction                                 O H H H H H H H H H H O   H10 C11 O2,mol-39206,174.196,0.776,-3.013,3.816,0.027,3.146,-0.643,C1
H10 C11 O2,CC1=COC(=CO1)c1ccccc1,0.092,3.818,0,H10 C11 O2 - Open Babel Depiction                                 O H H H H H H H H H H O   H10 C11 O2,mol-39279,174.196,0.778,-2.948,3.818,0.092,3.148,-0.578,C1
H10 C11 O2,CC1=COC=C(c2ccccc2)O1,0.123,3.818,0,H10 C11 O2 - Open Babel Depiction                                 O H H H H H H H H H H O   H10 C11 O2,mol-39208,174.196,0.778,-2.917,3.818,0.123,3.148,-0.547,C1
H12 C12 O2,CCC1=COC=C(c2ccccc2)O1,0.114,3.819,0,H12 C12 O2 - Open Babel Depiction                                    O H H H H H H H H H H H H O   H12 C12 O2,mol-39369,188.222,0.779,-2.926,3.819,0.114,3.149,-0.556,C1
H10 C7 O2,CC1=CCC(=CO1)OC,-0.993,3.821,0,H10 C7 O2 - Open Babel Depiction                         H H H H H H H H H H O O   H10 C7 O2,mol-12017,126.153,0.781,-4.033,3.821,-0.993,3.151,-1.663,C1
H10 C7 O2,CCC1=C(CC=CO1)O,-0.488,3.823,0,H10 C7 O2 - Open Babel Depiction                         H H H H H H H H H H O O   H10 C7 O2,mol-11930,126.153,0.783,-3.528,3.823,-0.488,3.153,-1.158,C1
H10 C11 O2,c1ccc(cc1)C1=C(CC=CO1)O,0.053,3.826,0,H10 C11 O2 - Open Babel Depiction                                 O H H H H H H H H H H O   H10 C11 O2,mol-12046,174.196,0.786,-2.987,3.826,0.053,3.156,-0.617,C1
H40 C23 O5,CC(C)(C)c1cc(cc(c1C(C)(C)C)OCCOCCCOC)OCCOC,-0.243,3.828,0,Multiple Molecules - Open Babel Depiction                                                                            O O O O O H H H H H H H H H H H H H H H H H H H H H H H H H H H H H H H H H H H H H H H H,mol-186887,396.561,0.788,-3.283,3.828,-0.243,3.158,-0.913,C1
H6 C5 O3,C1C(=COC=C1O)O,-0.641,3.829,0,H6 C5 O3 - Open Babel Depiction                    O O O H H H H H H   H6 C5 O3,mol-8552,114.099,0.789,-3.681,3.829,-0.641,3.159,-1.311,Cs
H12 C16 O2,c1ccc(cc1)C1=C(c2ccccc2)OC=CO1,0.566,3.832,0,H12 C16 O2 - Open Babel Depiction                                            H H H H H H H H H H H H O O   H12 C16 O2,mol-39460,236.265,0.792,-2.474,3.832,0.566,3.162,-0.104,C1
H8 C6 O2,CC1=C(CC=CO1)O,-0.486,3.834,0,H8 C6 O2 - Open Babel Depiction                      O O H H H H H H H H   H8 C6 O2,mol-9778,112.127,0.794,-3.526,3.834,-0.486,3.164,-1.156,C1
H12 C16 O2,c1ccc(cc1)C1=COC(=CO1)c1ccccc1,0.302,3.839,0,H12 C16 O2 - Open Babel Depiction                                            H H H H H H H H H H H H O O   H12 C16 O2,mol-39402,236.265,0.799,-2.738,3.839,0.302,3.169,-0.368,C1
H12 C15 O1,c12c(c3c(cc1cccc2)cccc3)OC,0.954,3.841,0,Multiple Molecules - Open Babel Depiction                                          O H H H H H H H H H H H H,mol-39435,208.255,0.801,-2.086,3.841,0.954,3.171,0.284,Cs
H6 C6 O3,C=CC1=COC=C(O)O1,-0.016,3.841,0,H6 C6 O3 - Open Babel Depiction                      O O O H H H H H H   H6 C6 O3,mol-39245,126.11,0.801,-3.056,3.841,-0.016,3.171,-0.686,Cs
H12 C12 O2,CCC1=C(c2ccccc2)OC=CO1,-0.029,3.845,0,H12 C12 O2 - Open Babel Depiction                                    O H H H H H H H H H H H H O   H12 C12 O2,mol-39379,188.222,0.805,-3.069,3.845,-0.029,3.175,-0.699,C1
H32 C19 O4,CC(C)(C)c1cc(c(c(c1)OCCOC)OCOC)C(C)(C)C,-0.594,3.846,0,Multiple Molecules - Open Babel Depiction                                                               O O O O H H H H H H H H H H H H H H H H H H H H H H H H H H H H H H H H,mol-85101,324.455,0.806,-3.634,3.846,-0.594,3.176,-1.264,C1
H30 C18 O3,CC(C)(C)c1cc(cc(c1C(C)(C)C)OC)OCCOC,,3.846,0,Multiple Molecules - Open Babel Depiction                                                           O O O H H H H H H H H H H H H H H H H H H H H H H H H H H H H H H,mol-84598,98.143,0.806,3066.343,3.846,3069.383,3.176,3068.713,C1
H36 C21 O5,CC(C)(C)c1cc(c(c(c1)OCCOC)OCOCCOC)C(C)(C)C,-0.707,3.846,0,Multiple Molecules - Open Babel Depiction                                                                      O O O O O H H H H H H H H H H H H H H H H H H H H H H H H H H H H H H H H H H H H,mol-85106,368.508,0.806,-3.747,3.846,-0.707,3.176,-1.377,C1
H6 C7 O3,C#CC1=C(OC)OC=CO1,0.368,3.848,0,H6 C7 O3 - Open Babel Depiction                        O O O H H H H H H   H6 C7 O3,mol-39341,138.121,0.808,-2.672,3.848,0.368,3.178,-0.302,C1
H6 C6 O3,C=CC1=COC(=CO1)O,0.252,3.853,0,H6 C6 O3 - Open Babel Depiction                      O O O H H H H H H   H6 C6 O3,mol-39248,126.11,0.813,-2.788,3.853,0.252,3.183,-0.418,Cs
H30 C18 O3,CC(C)(C)c1cc(c(c(c1)OCCOC)OC)C(C)(C)C,-0.749,3.854,0,Multiple Molecules - Open Babel Depiction                                                           O O O H H H H H H H H H H H H H H H H H H H H H H H H H H H H H H,mol-85039,98.143,0.814,-3.789,3.854,-0.749,3.184,-1.419,C1
H8 C7 O2,C=CC1=C(C)OC=CO1,0.099,3.855,0,H8 C7 O2 - Open Babel Depiction                        O H H H H H H H H O   H8 C7 O2,mol-39360,124.137,0.815,-2.941,3.855,0.099,3.185,-0.571,Cs
H10 C14 O1,c12c(cc3c(c1)cccc3)cccc2O,0.956,3.856,0,Multiple Molecules - Open Babel Depiction                                       O H H H H H H H H H H,mol-45071,194.229,0.816,-2.084,3.856,0.956,3.186,0.286,Cs
H14 C10 O2,c1(c(cc(c(c1)C)OC)C)OC,-1.146,3.857,0,Multiple Molecules - Open Babel Depiction                                  O O H H H H H H H H H H H H H H,mol-40786,83.108,0.817,-4.186,3.857,-1.146,3.187,-1.816,C2h
H10 C14 O2,C1(=COc2c(O1)cccc2)c1ccccc1,0.39,3.858,0,Multiple Molecules - Open Babel Depiction                                        O O H H H H H H H H H H,mol-57020,105.114,0.818,-2.65,3.858,0.39,3.188,-0.28,C1
H10 C7 O1,CC[C@H]1C=CC=C1O,-0.232,3.861,0,Multiple Molecules - Open Babel Depiction                         O H H H H H H H H H H,mol-184166,110.154,0.821,-3.272,3.861,-0.232,3.191,-0.902,C1
H36 C21 O4,CC(C)(C)c1cc(cc(c1C(C)(C)C)OC)OCCOCCCOC,-0.434,3.866,0,Multiple Molecules - Open Babel Depiction                                                                     O O O O H H H H H H H H H H H H H H H H H H H H H H H H H H H H H H H H H H H H,mol-84642,352.508,0.826,-3.474,3.866,-0.434,3.196,-1.104,C1
H8 C7 O2,C=CC1=C(CC=CO1)O,0.071,3.867,0,H8 C7 O2 - Open Babel Depiction                        O H H H H H H H H O   H8 C7 O2,mol-13205,124.137,0.827,-2.969,3.867,0.071,3.197,-0.599,Cs
H14 C10 O2,Cc1c(C)c(O)c(c(c1O)C)C,-0.783,3.868,0,Multiple Molecules - Open Babel Depiction                                  O O H H H H H H H H H H H H H H,mol-20541,83.108,0.828,-3.823,3.868,-0.783,3.198,-1.453,C2
H24 C19 O2,c12c(c(c3c(c1OC)[C@H]1CC[C@@H]3CC1)OC)[C@@H]1C[C@H]2CC1,-0.915,3.872,0,Multiple Molecules - Open Babel Depiction                                                         O O H H H H H H H H H H H H H H H H H H H H H H H H,mol-58950,284.393,0.832,-3.955,3.872,-0.915,3.202,-1.585,Cs
H26 C16 O2,CC(C)(C)c1cc(cc(c1C(C)(C)C)OC)OC,-0.353,3.874,0,Multiple Molecules - Open Babel Depiction                                                    O O H H H H H H H H H H H H H H H H H H H H H H H H H H,mol-110349,125.188,0.834,-3.393,3.874,-0.353,3.204,-1.023,C1
H8 C6 O1,C[C@H]1C=CC=C1O,-0.285,3.877,0,Multiple Molecules - Open Babel Depiction                      O H H H H H H H H,mol-101117,96.127,0.837,-3.325,3.877,-0.285,3.207,-0.955,C1
H8 C7 O2,C=CC1=COC(=CO1)C,0.102,3.878,0,H8 C7 O2 - Open Babel Depiction                        O H H H H H H H H O   H8 C7 O2,mol-39358,124.137,0.838,-2.938,3.878,0.102,3.208,-0.568,Cs
H10 C6 O2,C(=CC=C)(OC)OC,0.008,3.879,0,Multiple Molecules - Open Babel Depiction                        O O H H H H H H H H H H,mol-42136,57.071,0.839,-3.032,3.879,0.008,3.209,-0.662,C1
H8 C10 O2,Oc1c2c(c(cc1)O)cccc2,0.37,3.882,0,Multiple Molecules - Open Babel Depiction                               O O H H H H H H H H,mol-27224,80.085,0.842,-2.67,3.882,0.37,3.212,-0.3,C2
H10 C8 O2,C=CC1=COC(=CO1)CC,0.067,3.884,0,H10 C8 O2 - Open Babel Depiction                           H H H H H H H H H H O O   H10 C8 O2,mol-39432,138.164,0.844,-2.973,3.884,0.067,3.214,-0.603,C1
H12 C12 O1,COC1=CC=C[C@@H]1c1ccccc1,-0.237,3.889,0,Multiple Molecules - Open Babel Depiction                                         O H H H H H H H H H H H H,mol-109868,172.223,0.849,-3.277,3.889,-0.237,3.219,-0.907,C1
H8 C6 O2,COC1=CC=C[C@@H]1O,0.384,3.893,0,Multiple Molecules - Open Babel Depiction                            O O H H H H H H H H,mol-109468,56.063,0.853,-2.656,3.893,0.384,3.223,-0.286,C1
H10 C12 O2,C=CC1=COC=C(c2ccccc2)O1,0.342,3.897,0,H10 C12 O2 - Open Babel Depiction                                   O H H H H H H H H H H O   H10 C12 O2,mol-39356,186.207,0.857,-2.698,3.897,0.342,3.227,-0.328,C1
H10 C8 O2,C=CC1=CCC(=CO1)OC,0.126,3.897,0,H10 C8 O2 - Open Babel Depiction                           H H H H H H H H H H O O   H10 C8 O2,mol-13680,138.164,0.857,-2.914,3.897,0.126,3.227,-0.544,C1
H10 C7 O2,CCC1=COC=C(C1)O,-0.471,3.907,0,H10 C7 O2 - Open Babel Depiction                         H H H H H H H H H H O O   H10 C7 O2,mol-11914,126.153,0.867,-3.511,3.907,-0.471,3.237,-1.141,C1
H40 C23 O5,CC(C)(C)c1cc(c(cc1OCCOC)OCCOCCCOC)C(C)(C)C,-0.465,3.909,0,Multiple Molecules - Open Babel Depiction                                                                            O O O O O H H H H H H H H H H H H H H H H H H H H H H H H H H H H H H H H H H H H H H H H,mol-186928,396.561,0.869,-3.505,3.909,-0.465,3.239,-1.135,C1
H8 C6 O2,CC1=COC=C(C1)O,-0.467,3.91,0,H8 C6 O2 - Open Babel Depiction                      O O H H H H H H H H   H8 C6 O2,mol-9700,112.127,0.87,-3.507,3.91,-0.467,3.24,-1.137,C1
H32 C19 O4,CC(C)(C)c1cc(cc(c1C(C)(C)C)OCOC)OCCOC,-0.691,3.912,0,Multiple Molecules - Open Babel Depiction                                                               O O O O H H H H H H H H H H H H H H H H H H H H H H H H H H H H H H H H,mol-84646,324.455,0.872,-3.731,3.912,-0.691,3.242,-1.361,C1
H28 C17 O3,CC(C)(C)c1cc(c(cc1OC)C(C)(C)C)OCOC,-0.899,3.914,0,Multiple Molecules - Open Babel Depiction                                                        O O O H H H H H H H H H H H H H H H H H H H H H H H H H H H H,mol-110161,280.402,0.874,-3.939,3.914,-0.899,3.244,-1.569,Cs
H46 C26 O6,CC(C)(C)c1cc(c(cc1OCCOCCCOC)OCCOCCCOC)C(C)(C)C,-0.579,3.916,0,Multiple Molecules - Open Babel Depiction                                                                                      O O O O O O H H H H H H H H H H H H H H H H H H H H H H H H H H H H H H H H H H H H H H H H H H H H H H,mol-184031,227.32,0.876,-3.619,3.916,-0.579,3.246,-1.249,C1
H6 C7 O3,C#CC1=COC=C(OC)O1,0.443,3.917,0,H6 C7 O3 - Open Babel Depiction                        O O O H H H H H H   H6 C7 O3,mol-39365,138.121,0.877,-2.597,3.917,0.443,3.247,-0.227,C1
H12 C9 O3,c1(c(ccc(c1)OC)OC)OC,-0.822,3.919,0,Multiple Molecules - Open Babel Depiction                                O O O H H H H H H H H H H H H,mol-42464,56.063,0.879,-3.862,3.919,-0.822,3.249,-1.492,C1
H12 C12 O2,COC1=COC=C(C1)c1ccccc1,0.113,3.919,0,H12 C12 O2 - Open Babel Depiction                                    O H H H H H H H H H H H H O   H12 C12 O2,mol-12745,188.222,0.879,-2.927,3.919,0.113,3.249,-0.557,C1
H8 C6 O2,CCC1=COC=CO1,-0.505,3.919,0,H8 C6 O2 - Open Babel Depiction                      O O H H H H H H H H   H8 C6 O2,mol-39274,112.127,0.879,-3.545,3.919,-0.505,3.249,-1.175,C1
H28 C18 O2,CC(C)(C)c1c2CCCCc2c(c(c1O)O)C(C)(C)C,-0.25,3.922,0,Multiple Molecules - Open Babel Depiction                                                         O O H H H H H H H H H H H H H H H H H H H H H H H H H H H H,mol-119188,138.207,0.882,-3.29,3.922,-0.25,3.252,-0.92,C1
H38 C22 O5,CC(C)(C)c1cc(c(c(c1)OCCOCCCOC)OCOC)C(C)(C)C,,3.923,0,Multiple Molecules - Open Babel Depiction                                                                         O O O O O H H H H H H H H H H H H H H H H H H H H H H H H H H H H H H H H H H H H H H,mol-186907,382.534,0.883,,3.923,,3.253,,C1
H8 C7 O2,C=CC1=COC=C(C1)O,0.166,3.924,0,H8 C7 O2 - Open Babel Depiction                        O H H H H H H H H O   H8 C7 O2,mol-13195,124.137,0.884,-2.874,3.924,0.166,3.254,-0.504,C1
H10 C7 O2,CCC1=CCC(=CO1)O,-0.898,3.925,0,H10 C7 O2 - Open Babel Depiction                         H H H H H H H H H H O O   H10 C7 O2,mol-11928,126.153,0.885,-3.938,3.925,-0.898,3.255,-1.568,C1
H6 C7 O3,C#CC1=COC(=CO1)OC,0.454,3.927,0,H6 C7 O3 - Open Babel Depiction                        O O O H H H H H H   H6 C7 O3,mol-39362,138.121,0.887,-2.586,3.927,0.454,3.257,-0.216,C1
H6 C5 O2,CC1=COC=CO1,-0.476,3.927,0,H6 C5 O2 - Open Babel Depiction                   O O H H H H H H   H6 C5 O2,mol-39175,98.1,0.887,-3.516,3.927,-0.476,3.257,-1.146,Cs
H12 C10 O4,C1CCc2c(C1)c(c(c(c2O)O)O)O,-0.352,3.93,0,Multiple Molecules - Open Babel Depiction                                   O O O O H H H H H H H H H H H H,mol-116587,98.1,0.89,-3.392,3.93,-0.352,3.26,-1.022,C1
H24 C15 O2,C(C)(C)(C)c1c(O)c(C(C)(C)C)cc(c1)OC,-0.643,3.931,0,Multiple Molecules - Open Babel Depiction                                                 O O H H H H H H H H H H H H H H H H H H H H H H H H,mol-23454,236.35,0.891,-3.683,3.931,-0.643,3.261,-1.313,C1
H12 C12 O2,c12c(ccc(c2)OC)cccc1OC,0.203,3.933,0,Multiple Molecules - Open Babel Depiction                                     O O H H H H H H H H H H H H,mol-40796,94.111,0.893,-2.837,3.933,0.203,3.263,-0.467,Cs
H10 C7 O3,COC1=COC(=CC1)OC,-1.015,3.934,0,H10 C7 O3 - Open Babel Depiction                          H H H H H H H H H H O O O   H10 C7 O3,mol-12071,142.153,0.894,-4.055,3.934,-1.015,3.264,-1.685,C1
H8 C6 O3,COC1=COC(=CC1)O,-0.458,3.943,0,H8 C6 O3 - Open Babel Depiction                       O H H H H H H H H O O   H8 C6 O3,mol-9770,128.126,0.903,-3.498,3.943,-0.458,3.273,-1.128,C1
H10 C11 O2,c1ccc(cc1)C1=COC=C(C1)O,0.132,3.946,0,H10 C11 O2 - Open Babel Depiction                                 O H H H H H H H H H H O   H10 C11 O2,mol-12892,174.196,0.906,-2.908,3.946,0.132,3.276,-0.538,C1
H12 C8 O2,CCC1=COC(=CC1)OC,-0.806,3.948,0,H12 C8 O2 - Open Babel Depiction                            H H H H H H H H H H H H O O   H12 C8 O2,mol-6470,140.18,0.908,-3.846,3.948,-0.806,3.278,-1.476,C1
H8 C7 O1,C=C[C@H]1C=CC=C1O,-0.165,3.948,0,Multiple Molecules - Open Babel Depiction                        O H H H H H H H H,mol-109638,108.138,0.908,-3.205,3.948,-0.165,3.278,-0.835,C1
H10 C7 O2,CC1=CCC=C(OC)O1,-0.874,3.948,0,H10 C7 O2 - Open Babel Depiction                         H H H H H H H H H H O O   H10 C7 O2,mol-12040,126.153,0.908,-3.914,3.948,-0.874,3.278,-1.544,C1
H30 C18 O3,CC(C)(C)c1cc(c(cc1OC)OCCOC)C(C)(C)C,,3.95,0,Multiple Molecules - Open Babel Depiction                                                           O O O H H H H H H H H H H H H H H H H H H H H H H H H H H H H H H,mol-85068,98.143,0.91,2257.847,3.95,2260.887,3.28,2260.217,C1
H12 C9 O2,c1(c(c(cc(c1C)O)C)O)C,-0.795,3.951,0,Multiple Molecules - Open Babel Depiction                               O O H H H H H H H H H H H H,mol-44225,152.19,0.911,-3.835,3.951,-0.795,3.281,-1.465,Cs
H10 C11 O1,c1ccc(cc1)[C@H]1C=CC=C1O,-0.187,3.953,0,Multiple Molecules - Open Babel Depiction                                 O H H H H H H H H H H,mol-89709,158.197,0.913,-3.227,3.953,-0.187,3.283,-0.857,C1
H10 C7 O2,CC1=COC(=CC1)OC,-1.021,3.953,0,H10 C7 O2 - Open Babel Depiction                         H H H H H H H H H H O O   H10 C7 O2,mol-12044,126.153,0.913,-4.061,3.953,-1.021,3.283,-1.691,C1
H8 C6 O3,COC1=CCC(=CO1)O,-0.481,3.955,0,H8 C6 O3 - Open Babel Depiction                       O H H H H H H H H O O   H8 C6 O3,mol-9798,128.126,0.915,-3.521,3.955,-0.481,3.285,-1.151,C1
H28 C17 O3,CC(C)(C)c1cc(c(c(c1)OCOC)OC)C(C)(C)C,-0.848,3.957,0,Multiple Molecules - Open Babel Depiction                                                        O O O H H H H H H H H H H H H H H H H H H H H H H H H H H H H,mol-110519,280.402,0.917,-3.888,3.957,-0.848,3.287,-1.518,C1
H30 C18 O3,CC(C)(C)c1cc(cc(c1C(C)(C)C)OCCOC)OC,-0.4,3.958,0,Multiple Molecules - Open Babel Depiction                                                           O O O H H H H H H H H H H H H H H H H H H H H H H H H H H H H H H,mol-84591,98.143,0.918,-3.44,3.958,-0.4,3.288,-1.07,C1
H8 C8 O1,C#C[C@H]1C=CC=C1OC,0.049,3.96,0,Multiple Molecules - Open Babel Depiction                               O H H H H H H H H,mol-101429,120.149,0.92,-2.991,3.96,0.049,3.29,-0.621,C1
H32 C19 O4,CC(C)(C)c1cc(c(cc1OC)OCOCCOC)C(C)(C)C,-0.903,3.964,0,Multiple Molecules - Open Babel Depiction                                                               O O O O H H H H H H H H H H H H H H H H H H H H H H H H H H H H H H H H,mol-85094,324.455,0.924,-3.943,3.964,-0.903,3.294,-1.573,C1
H34 C20 O4,CC(C)(C)c1cc(cc(c1C(C)(C)C)OCCOC)OCCOC,-0.376,3.972,0,Multiple Molecules - Open Babel Depiction                                                                  O O O O H H H H H H H H H H H H H H H H H H H H H H H H H H H H H H H H H H,mol-84578,169.241,0.932,-3.416,3.972,-0.376,3.302,-1.046,C1
H10 C10 O2,C(=C\C)/c1cc2c(cc1)OCO2,0.049,3.972,0,Multiple Molecules - Open Babel Depiction                                O O H H H H H H H H H H,mol-25566,81.093,0.932,-2.991,3.972,0.049,3.302,-0.621,C1
H4 C6 O3,C#CC1=COC=C(O)O1,0.493,3.972,0,H4 C6 O3 - Open Babel Depiction                     O O O H H H H   H4 C6 O3,mol-39226,124.094,0.932,-2.547,3.972,0.493,3.302,-0.177,Cs
H20 C15 O5,CC(=O)c1c2CCCCc2c(c(c1O)O)OCCOC,0.763,3.977,0,Multiple Molecules - Open Babel Depiction                                                  O O O O O H H H H H H H H H H H H H H H H H H H H,mol-117337,56.063,0.937,-2.277,3.977,0.763,3.307,0.093,C1