Formula,Smiles,EA (eV),IE (eV),Charge,Svg,Task Id,MW,Oxidation Hydrogen,Reduction Hydrogen,Oxidation Lithium,Reduction Lithium,Oxidation Magnesium,Reduction Magnesium,Point Group
H2 C4 O3,O=C1OC(=O)C=C1,2.368,,0,Multiple Molecules - Open Babel Depiction                 O O O H H,mol-28170,98.057,,-0.672,,2.368,,1.698,C2v
H26 C16 O8,[C@H]([C@@H](CC(=O)OCC)C(=O)OCC)(CC(=O)OCC)C(=O)OCC,-0.48,,0,Multiple Molecules - Open Babel Depiction                                                                    O O O O O O O O H H H H H H H H H H H H H H H H H H H H H H H H H H,mol-35731,173.186,,-3.52,,-0.48,,-1.15,C1
H12 C10 O2,[C@]123[C@@]4([C@@H]1[C@H]3CCC[C@H]24)C(=O)OC,2.66,,0,Multiple Molecules - Open Babel Depiction                                                     O O H H H H H H H H H H H H,mol-41326,82.101,,-0.38,,2.66,,1.99,C1
H16 C14 O2,C\1(=C\2/C=C(OC(=C2)C)C)/C=C(OC(=C1)C)C,-0.193,,0,Multiple Molecules - Open Babel Depiction                                           O O H H H H H H H H H H H H H H H H,mol-43987,108.138,,-3.233,,-0.193,,-0.863,D2h
H14 C21 O2,c1cc2c(cc1)C(=O)c1c(C2=O)cc(c(c1)C)c1ccccc1,3.549,,0,Multiple Molecules - Open Babel Depiction                                                        H H H H H H O O H H H H H H H H,mol-91073,298.335,,,,,,,C1
H10 C17 O2,c1(cc2c(cc1)C(=O)c1c(C2=O)cc(cc1)C)C#C,2.251,,0,Multiple Molecules - Open Babel Depiction                                              H H H H H H O O H H H H,mol-10854,246.26,,-0.789,,2.251,,1.581,Cs
H18 C12 O8,[C@H]([C@@H](CC(=O)OC)C(=O)OC)(CC(=O)OC)C(=O)OC,-0.114,,0,Multiple Molecules - Open Babel Depiction                                              O O O O O O O O H H H H H H H H H H H H H H H H H H,mol-34073,145.133,,-3.154,,-0.114,,-0.784,C1
H26 C13 O1,[C@](CCCCCCCC)(CC=C)(C)O,-0.542,,0,Multiple Molecules - Open Babel Depiction                                             O H H H H H H H H H H H H H H H H H H H H H H H H H H,mol-36880,198.345,,-3.582,,-0.542,,-1.212,C1
H10 C8 O1,Cc1cccc(c1)OC,,,0,H10 C8 O1 - Open Babel Depiction                          H H H H H H H H H H O   H10 C8 O1,mol-24135,122.164,,-285.835,,-282.795,,-283.465,Cs
H12 C6 O2,C(=O)(OCCCC)C,-0.198,,0,Multiple Molecules - Open Babel Depiction                         O O H H H H H H H H H H H H,mol-43402,58.079,,-3.238,,-0.198,,-0.868,C1
H5 C2 O1,[O]CC,2.978,,0,Multiple Molecules - Open Babel Depiction             . O H H H H H,mol-64010,45.06,,-0.062,,2.978,,2.308,Cs
H12 C17 O2,c1cc2c(cc1)C(=O)c1c(C2=O)c(c(cc1)C)C=C,2.109,,0,Multiple Molecules - Open Babel Depiction                                               H H H H H H O O H H H H H H,mol-13091,248.276,,-0.931,,2.109,,1.439,C1
H20 C22 O1,CC1(c2c(c3c1cccc3)cccc2)c1cc(C)c(c(c1)C)O,0.181,,0,Multiple Molecules - Open Babel Depiction                                                            O H H H H H H H H H H H H H H H H H H H H,mol-23311,300.394,,-2.859,,0.181,,-0.489,C1
H14 C21 O2,c1cc2c(cc1)C(=O)c1c(C2=O)cc(cc1c1ccccc1)C,2.109,,0,Multiple Molecules - Open Babel Depiction                                                        H H H H H H O O H H H H H H H H,mol-10524,298.335,,-0.931,,2.109,,1.439,C1
H22 C24 O2,Cc1cc(c2c(c1OC)cccc2)c1cc2c(cc1)ccc(c2OC)C,0.578,,0,Multiple Molecules - Open Babel Depiction                                                                  O O H H H H H H H H H H H H H H H H H H H H H H,mol-25568,171.215,,-2.462,,0.578,,-0.092,C1
H6 C3 O1,C(=C)(C)O,-0.574,,0,Multiple Molecules - Open Babel Depiction               O H H H H H H,mol-23796,58.079,,-3.614,,-0.574,,-1.244,Cs
H6 C4 O2,C(=O)(C=C)OC,0.834,,0,Multiple Molecules - Open Babel Depiction                  O O H H H H H H,mol-24173,43.045,,-2.206,,0.834,,0.164,Cs
H20 C15 O4,C([C@@H]1/C(=C\C(=O)OC)/CC(C1)(C)C)C1=CCOC1=O,0.672,,0,Multiple Molecules - Open Babel Depiction                                                 O O O O H H H H H H H H H H H H H H H H H H H H,mol-23431,264.317,,-2.368,,0.672,,0.002,C1
H20 C14 O8,C(=C(C(=O)OCC)C(=O)OCC)(C(=O)OCC)C(=O)OCC,2.183,,0,Multiple Molecules - Open Babel Depiction                                                   O O O O O O O O H H H H H H H H H H H H H H H H H H H H,mol-35967,158.152,,-0.857,,2.183,,1.513,Ci
H14 C8 O2,C(=O)(OC)C1CCCCC1,-0.532,,0,Multiple Molecules - Open Babel Depiction                              O O H H H H H H H H H H H H H H,mol-24529,71.098,,-3.572,,-0.532,,-1.202,C1
H14 C9 O1,C#CC1(CCCCC1)OC,,,0,H14 C9 O1 - Open Babel Depiction                              H H H H H H H H H H H H H H O   H14 C9 O1,mol-25480,138.207,315.743,,318.783,,318.113,,C1
H14 C7 O2,CO[C@@H]1CCC[C@@H]1OC,,,0,H14 C7 O2 - Open Babel Depiction                                 H H H H H H H H H H H H H H O O   H14 C7 O2,mol-27513,130.185,303.43,-310.143,306.47,-307.103,305.8,-307.773,C1
H10 C7 O1,C#C[C@@H]1CCC[C@@H]1O,,,0,H10 C7 O1 - Open Babel Depiction                              H H H H H H H H H H O   H10 C7 O1,mol-27379,110.154,253.564,-258.519,256.604,-255.479,255.934,-256.149,C1
H14 C7 O1,CC1(CCCC1)OC,-1.136,,0,H14 C7 O1 - Open Babel Depiction                          H H H H H H H H H H H H H H O   H14 C7 O1,mol-28046,114.185,,-4.176,,-1.136,,-1.806,C1
H14 C7 O1,C[C@H]1CCCC[C@H]1O,,,0,H14 C7 O1 - Open Babel Depiction                                H H H H H H H H H H H H H H O   H14 C7 O1,mol-24594,114.185,261.175,-266.617,264.215,-263.577,263.545,-264.247,C1
H14 C7 O1,C[C@@H]1CCC[C@@H](C1)O,,,0,H14 C7 O1 - Open Babel Depiction                          H H H H H H H H H H H H H H O   H14 C7 O1,mol-24527,114.185,,-267.029,,-263.989,,-264.659,C1
H30 C18 O4,CC(C)(C)c1c(ccc(c1C(C)(C)C)OCOC)OCOC,,,0,Multiple Molecules - Open Babel Depiction                                                            O O O O H H H H H H H H H H H H H H H H H H H H H H H H H H H H H H,mol-85249,155.214,3145.544,-4047.783,3148.584,-4044.743,3147.914,-4045.413,C1
H4 C4 O3,C1(=O)OC(=O)CC1,0.801,,0,Multiple Molecules - Open Babel Depiction                  O O O H H H H,mol-55257,100.073,,-2.239,,0.801,,0.131,C2v
H14 C7 O1,CC[C@@H]1CC[C@H](C1)O,,,0,H14 C7 O1 - Open Babel Depiction                               H H H H H H H H H H H H H H O   H14 C7 O1,mol-27449,114.185,260.839,-266.532,263.879,-263.492,263.209,-264.162,C1
H16 C8 O1,C[C@@H]1CCC[C@@H](C1)OC,,,0,H16 C8 O1 - Open Babel Depiction                             H H H H H H H H H H H H H H H H O   H16 C8 O1,mol-24765,128.212,292.019,-298.452,295.059,-295.412,294.389,-296.082,C1
H14 C7 O1,C[C@@H]1CCC[C@@H]1OC,,,0,H14 C7 O1 - Open Babel Depiction                           H H H H H H H H H H H H H H O   H14 C7 O1,mol-27500,114.185,260.673,-266.81,263.713,-263.77,263.043,-264.44,C1
H16 C8 O2,CO[C@H]1CCCC[C@H]1OC,,,0,H16 C8 O2 - Open Babel Depiction                                         H H H H H H H H H H H H H H H H O O   H16 C8 O2,mol-24816,144.211,334.908,-341.7,337.948,-338.66,337.278,-339.33,C1
H32 C19 O4,CC(C)(C)c1c(ccc(c1C(C)(C)C)OCOCCOC)OC,,,0,Multiple Molecules - Open Babel Depiction                                                               O O O O H H H H H H H H H H H H H H H H H H H H H H H H H H H H H H H H,mol-85416,324.455,3051.962,-3054.197,3055.002,-3051.157,3054.332,-3051.827,C1
H38 C22 O6,CC(C)(C)c1cc(c(c(c1)OCOCCOC)C(C)(C)C)OCOCCOC,-0.841,,0,Multiple Molecules - Open Babel Depiction                                                                          O O O O O O H H H H H H H H H H H H H H H H H H H H H H H H H H H H H H H H H H H H H H,mol-85248,199.267,,-3.881,,-0.841,,-1.511,C1
H38 C22 O6,CC(C)(C)c1cc(c(cc1OCOCCOC)C(C)(C)C)OCOCCOC,,,0,Multiple Molecules - Open Babel Depiction                                                                          O O O O O O H H H H H H H H H H H H H H H H H H H H H H H H H H H H H H H H H H H H H H,mol-84966,199.267,,3123.365,,3126.405,,3125.735,C1
H30 C18 O4,CC(C)(C)c1cc(c(c(c1)OCOC)OCOC)C(C)(C)C,,,0,Multiple Molecules - Open Babel Depiction                                                            O O O O H H H H H H H H H H H H H H H H H H H H H H H H H H H H H H,mol-85149,155.214,1628.299,-1631.117,1631.339,-1628.077,1630.669,-1628.747,C1
H42 C24 O6,CC(C)(C)c1ccc(c(c1OCCOCCCOC)C(C)(C)C)OCOCCOC,-0.557,,0,Multiple Molecules - Open Babel Depiction                                                                                O O O O O O H H H H H H H H H H H H H H H H H H H H H H H H H H H H H H H H H H H H H H H H H H,mol-84789,71.098,,-3.597,,-0.557,,-1.227,C1
H34 C21 O6,CC(C)(C)c1c2CCCCc2c(c(c1O)O)OCCOCCOCCOC,-0.351,,0,Multiple Molecules - Open Babel Depiction                                                                      O O O O O O H H H H H H H H H H H H H H H H H H H H H H H H H H H H H H H H H H,mol-84466,382.491,,-3.391,,-0.351,,-1.021,C1
H30 C18 O4,CC(C)(C)c1cc(c(cc1OCOC)OCOC)C(C)(C)C,-0.566,,0,Multiple Molecules - Open Babel Depiction                                                            O O O O H H H H H H H H H H H H H H H H H H H H H H H H H H H H H H,mol-85034,155.214,-3572.772,-3.606,-3569.732,-0.566,-3570.402,-1.236,C2
H12 C6 O2,C1CC[C@H]([C@H](C1)O)O,,,0,H12 C6 O2 - Open Babel Depiction                         H H H H H H H H H H H H O O   H12 C6 O2,mol-25622,116.158,272.903,-278.413,275.943,-275.373,275.273,-276.043,C1
H16 C8 O1,C[C@H]1CCCC[C@H]1OC,,,0,H16 C8 O1 - Open Babel Depiction                                   H H H H H H H H H H H H H H H H O   H16 C8 O1,mol-24818,128.212,292.195,-298.307,295.235,-295.267,294.565,-295.937,C1
H12 C6 O2,C1CCC(CC1)(O)O,-0.509,,0,H12 C6 O2 - Open Babel Depiction                        H H H H H H H H H H H H O O   H12 C6 O2,mol-25091,116.158,273.016,-3.549,276.056,-0.509,275.386,-1.179,C1
H36 C21 O4,CC(C)(C)c1cc(c(c(c1)OCCOCCCOC)C(C)(C)C)OC,-1.023,,0,Multiple Molecules - Open Babel Depiction                                                                     O O O O H H H H H H H H H H H H H H H H H H H H H H H H H H H H H H H H H H H H,mol-85363,352.508,,-4.063,,-1.023,,-1.693,C1
H10 C7 O1,C[C@@H]1C=CC=C1OC,-0.499,,0,H10 C7 O1 - Open Babel Depiction                             H H H H H H H H H H O   H10 C7 O1,mol-25746,110.154,252.621,-3.539,255.661,-0.499,254.991,-1.169,C1
H40 C23 O5,CC(C)(C)c1cc(cc(c1OCCOC)C(C)(C)C)OCCOCCCOC,-0.555,,0,Multiple Molecules - Open Babel Depiction                                                                            O O O O O H H H H H H H H H H H H H H H H H H H H H H H H H H H H H H H H H H H H H H H H,mol-186892,396.561,,-3.595,,-0.555,,-1.225,C1
H30 C18 O3,CC(C)(C)c1ccc(c(c1OC)OCCOC)C(C)(C)C,-0.624,,0,Multiple Molecules - Open Babel Depiction                                                           O O O H H H H H H H H H H H H H H H H H H H H H H H H H H H H H H,mol-84947,98.143,-2719.594,-3.664,-2716.554,-0.624,-2717.224,-1.294,C1
H38 C22 O6,CC(C)(C)c1ccc(c(c1OCOCCOC)OCOCCOC)C(C)(C)C,-0.56,,0,Multiple Molecules - Open Babel Depiction                                                                          O O O O O O H H H H H H H H H H H H H H H H H H H H H H H H H H H H H H H H H H H H H H,mol-84915,199.267,,-3.6,,-0.56,,-1.23,C1
H36 C21 O4,CC(C)(C)c1ccc(c(c1OC)C(C)(C)C)OCCOCCCOC,-0.626,,0,Multiple Molecules - Open Babel Depiction                                                                     O O O O H H H H H H H H H H H H H H H H H H H H H H H H H H H H H H H H H H H H,mol-84667,352.508,,-3.666,,-0.626,,-1.296,C1
H36 C22 O9,COCCOCCOCCOc1c2CCCCc2c(c(c1O)O)OCCOCCOC,-0.497,,0,Multiple Molecules - Open Babel Depiction                                                                            O O O O O O O O O H H H H H H H H H H H H H H H H H H H H H H H H H H H H H H H H H H H H,mol-84504,444.516,,-3.537,,-0.497,,-1.167,C1
H32 C20 O8,COCCOCCOc1c2CCCCc2c(c(c1O)O)OCCOCCOC,-0.59,,0,Multiple Molecules - Open Babel Depiction                                                                     O O O O O O O O H H H H H H H H H H H H H H H H H H H H H H H H H H H H H H H H,mol-83301,100.116,,-3.63,,-0.59,,-1.26,C1
H12 C17 O2,c1cc2c(c(c1)C)C(=O)c1c(C2=O)c(ccc1)C=C,2.07,,0,Multiple Molecules - Open Babel Depiction                                               H H H H H H O O H H H H H H,mol-13112,248.276,,-0.97,,2.07,,1.4,C1
H22 C20 O2,[C@](CCCC(=O)c1ccccc1)(O)(C1CC1)c1ccccc1,0.886,,0,Multiple Molecules - Open Babel Depiction                                                               O O H H H H H H H H H H H H H H H H H H H H H H,mol-21299,147.194,,-2.154,,0.886,,0.216,C1
H14 C7 O1,CC1(CCCCC1)O,,,0,H14 C7 O1 - Open Babel Depiction                          H H H H H H H H H H H H H H O   H14 C7 O1,mol-25207,114.185,261.036,-266.579,264.076,-263.539,263.406,-264.209,C1
H14 C8 O1,C=C[C@H]1CCCC[C@H]1O,,,0,H14 C8 O1 - Open Babel Depiction                                  H H H H H H H H H H H H H H O   H14 C8 O1,mol-24857,126.196,288.531,-293.536,291.571,-290.496,290.901,-291.166,C1
H32 C19 O4,CC(C)(C)c1ccc(c(c1C(C)(C)C)OCOCCOC)OC,,,0,Multiple Molecules - Open Babel Depiction                                                               O O O O H H H H H H H H H H H H H H H H H H H H H H H H H H H H H H H H,mol-84723,324.455,-1800.516,-1097.881,-1797.476,-1094.841,-1798.146,-1095.511,C1
H34 C20 O4,CC(C)(C)c1ccc(c(c1OCCOC)C(C)(C)C)OCCOC,-0.656,,0,Multiple Molecules - Open Babel Depiction                                                                  O O O O H H H H H H H H H H H H H H H H H H H H H H H H H H H H H H H H H H,mol-84615,169.241,,-3.696,,-0.656,,-1.326,C1
H42 C24 O6,CC(C)(C)c1cc(c(cc1OCCOCCCOC)C(C)(C)C)OCOCCOC,,,0,Multiple Molecules - Open Babel Depiction                                                                                O O O O O O H H H H H H H H H H H H H H H H H H H H H H H H H H H H H H H H H H H H H H H H H H,mol-84971,71.098,,3547.729,,3550.769,,3550.099,C1
H38 C22 O5,CC(C)(C)c1cc(cc(c1C(C)(C)C)OCCOCCCOC)OCOC,-0.255,,0,Multiple Molecules - Open Babel Depiction                                                                         O O O O O H H H H H H H H H H H H H H H H H H H H H H H H H H H H H H H H H H H H H H,mol-84619,382.534,,-3.295,,-0.255,,-0.925,C1
H32 C19 O4,CC(C)(C)c1ccc(c(c1OC)C(C)(C)C)OCOCCOC,-0.668,,0,Multiple Molecules - Open Babel Depiction                                                               O O O O H H H H H H H H H H H H H H H H H H H H H H H H H H H H H H H H,mol-84618,324.455,,-3.708,,-0.668,,-1.338,C1
H14 C7 O1,C[C@@H]1CC[C@H](C1)OC,,,0,H14 C7 O1 - Open Babel Depiction                               H H H H H H H H H H H H H H O   H14 C7 O1,mol-27452,114.185,260.52,-266.895,263.56,-263.855,262.89,-264.525,C1
H34 C20 O5,CC(C)(C)c1cc(c(cc1OCOC)OCOCCOC)C(C)(C)C,-0.559,,0,Multiple Molecules - Open Babel Depiction                                                                   O O O O O H H H H H H H H H H H H H H H H H H H H H H H H H H H H H H H H H H,mol-85027,354.481,,-3.599,,-0.559,,-1.229,C1
H32 C20 O8,COCCOCCOC1(CCCc2cc(c(cc12)O)O)OCCOCCOC,,,0,Multiple Molecules - Open Babel Depiction                                                                     O O O O O O O O H H H H H H H H H H H H H H H H H H H H H H H H H H H H H H H H,mol-84372,100.116,,1429.699,,1432.739,,1432.069,C1
H18 C13 O1,CO[C@@H]1CCCC[C@@H]1c1ccccc1,,,0,H18 C13 O1 - Open Babel Depiction                                              H H H H H H H H H H H H H H H H H H O   H18 C13 O1,mol-25337,190.281,434.477,,437.517,,436.847,,C1
H32 C19 O4,CC(C)(C)c1cc(c(cc1C(C)(C)C)OCOCCOC)OC,,,0,Multiple Molecules - Open Babel Depiction                                                               O O O O H H H H H H H H H H H H H H H H H H H H H H H H H H H H H H H H,mol-84671,324.455,3188.748,-1853.066,3191.788,-1850.026,3191.118,-1850.696,C1
H36 C21 O4,CC(C)(C)c1ccc(c(c1OCCOCCCOC)C(C)(C)C)OC,-0.506,,0,Multiple Molecules - Open Babel Depiction                                                                     O O O O H H H H H H H H H H H H H H H H H H H H H H H H H H H H H H H H H H H H,mol-186902,352.508,,-3.546,,-0.506,,-1.176,C1
H6 C6 O1,c1ccc(cc1)O,-0.724,,0,H6 C6 O1 - Open Babel Depiction                    O H H H H H H   H6 C6 O1,mol-22825,94.111,218.319,-3.764,221.359,-0.724,220.689,-1.394,Cs
H6 C6 O2,c1cc(ccc1O)O,-0.676,,0,H6 C6 O2 - Open Babel Depiction                     O O H H H H H H   H6 C6 O2,mol-23889,110.111,260.992,-3.716,264.032,-0.676,263.362,-1.346,C2v
H12 C17 O2,c1(cc2c(cc1)C(=O)c1c(C2=O)c(ccc1)C)C=C,2.105,,0,Multiple Molecules - Open Babel Depiction                                               H H H H H H O O H H H H H H,mol-19474,248.276,,-0.935,,2.105,,1.435,Cs
H5 C2 O1,[O]CC,4.378,,0,Multiple Molecules - Open Babel Depiction             . O H H H H H,mol-58430,45.06,,,,,,,Cs
H16 C9 O1,C(C=C)C1(O)CCCCC1,-0.734,,0,Multiple Molecules - Open Babel Depiction                                O H H H H H H H H H H H H H H H H,mol-25172,140.223,,-3.774,,-0.734,,-1.404,C1
H16 C8 O1,CC[C@H]1CCCC[C@H]1O,,,0,H16 C8 O1 - Open Babel Depiction                              H H H H H H H H H H H H H H H H O   H16 C8 O1,mol-24756,128.212,292.451,-298.007,295.491,-294.967,294.821,-295.637,C1
H26 C21 O5,COCCOCCOc1c2CCCCc2c(c2ccccc2)c(c1O)O,-0.212,,0,Multiple Molecules - Open Babel Depiction                                                                 O O O O O H H H H H H H H H H H H H H H H H H H H H H H H H H,mol-83210,358.428,,-3.252,,-0.212,,-0.882,C1
H30 C23 O6,COCCOCCOCCOc1c2CCCCc2c(c2ccccc2)c(c1O)O,,,0,Multiple Molecules - Open Babel Depiction                                                                        O O O O O O H H H H H H H H H H H H H H H H H H H H H H H H H H H H H H,mol-84662,402.481,,-378.952,,-375.912,,-376.582,C1
H26 C17 O7,COCCOCCOCCOc1c2CCCCc2c(c(c1O)O)O,-0.455,,0,Multiple Molecules - Open Babel Depiction                                                           O O O O O O O H H H H H H H H H H H H H H H H H H H H H H H H H H,mol-118117,342.384,,-3.495,,-0.455,,-1.125,C1
H46 C26 O6,CC(C)(C)c1cc(c(c(c1)OCCOCCCOC)C(C)(C)C)OCCOCCCOC,-0.88,,0,Multiple Molecules - Open Babel Depiction                                                                                      O O O O O O H H H H H H H H H H H H H H H H H H H H H H H H H H H H H H H H H H H H H H H H H H H H H H,mol-184034,227.32,,-3.92,,-0.88,,-1.55,C1
H32 C19 O4,CC(C)(C)c1ccc(c(c1C(C)(C)C)OC)OCOCCOC,,,0,Multiple Molecules - Open Babel Depiction                                                               O O O O H H H H H H H H H H H H H H H H H H H H H H H H H H H H H H H H,mol-84563,324.455,,1560.601,,1563.641,,1562.971,C1
H36 C21 O4,CC(C)(C)c1cc(cc(c1C(C)(C)C)OCCOCCCOC)OC,,,0,Multiple Molecules - Open Babel Depiction                                                                     O O O O H H H H H H H H H H H H H H H H H H H H H H H H H H H H H H H H H H H H,mol-186890,352.508,,4646.845,,4649.885,,4649.215,C1
H32 C19 O4,CC(C)(C)c1cc(cc(c1C(C)(C)C)OCOCCOC)OC,,,0,Multiple Molecules - Open Babel Depiction                                                               O O O O H H H H H H H H H H H H H H H H H H H H H H H H H H H H H H H H,mol-84755,324.455,-2761.772,3762.29,-2758.732,3765.33,-2759.402,3764.66,C1
H34 C20 O5,CC(C)(C)c1ccc(c(c1OCOC)C(C)(C)C)OCOCCOC,-0.541,,0,Multiple Molecules - Open Babel Depiction                                                                   O O O O O H H H H H H H H H H H H H H H H H H H H H H H H H H H H H H H H H H,mol-84774,354.481,,-3.581,,-0.541,,-1.211,C1
H42 C24 O6,CC(C)(C)c1cc(cc(c1OCCOCCCOC)C(C)(C)C)OCOCCOC,-0.618,,0,Multiple Molecules - Open Babel Depiction                                                                                O O O O O O H H H H H H H H H H H H H H H H H H H H H H H H H H H H H H H H H H H H H H H H H H,mol-184140,71.098,,-3.658,,-0.618,,-1.288,C1