Formula,Smiles,EA (eV),IE (eV),Charge,Svg,Task Id,MW,Oxidation Hydrogen,Reduction Hydrogen,Oxidation Lithium,Reduction Lithium,Oxidation Magnesium,Reduction Magnesium,Point Group
H32 C19 O4,CC(C)(C)c1cc(cc(c1C(C)(C)C)OCCOC)OCOC,,,0,Multiple Molecules - Open Babel Depiction                                                               O O O O H H H H H H H H H H H H H H H H H H H H H H H H H H H H H H H H,mol-84696,324.455,2762.129,710.096,2765.169,713.136,2764.499,712.466,C1
H28 C18 O6,Cc1c2CCCCc2c(c(c1O)O)OCCOCCOCCOC,-0.37,,0,Multiple Molecules - Open Babel Depiction                                                             O O O O O O H H H H H H H H H H H H H H H H H H H H H H H H H H H H,mol-83169,170.206,,-3.41,,-0.37,,-1.04,C1
H30 C18 O3,CC(C)(C)c1c(ccc(c1C(C)(C)C)OCCOC)OC,,,0,Multiple Molecules - Open Babel Depiction                                                           O O O H H H H H H H H H H H H H H H H H H H H H H H H H H H H H H,mol-86080,98.143,4264.815,-4267.286,4267.855,-4264.246,4267.185,-4264.916,C1
H14 C7 O2,COC1(CCCCC1)O,,,0,H14 C7 O2 - Open Babel Depiction                           H H H H H H H H H H H H H H O O   H14 C7 O2,mol-25240,130.185,304,-309.965,307.04,-306.925,306.37,-307.595,C1
H32 C19 O4,CC(C)(C)c1cc(c(cc1OCCOC)OCOC)C(C)(C)C,-0.739,,0,Multiple Molecules - Open Babel Depiction                                                               O O O O H H H H H H H H H H H H H H H H H H H H H H H H H H H H H H H H,mol-85064,324.455,-2552.36,-3.779,-2549.32,-0.739,-2549.99,-1.409,C1
H34 C20 O5,CC(C)(C)c1cc(cc(c1C(C)(C)C)OCOCCOC)OCOC,-0.282,,0,Multiple Molecules - Open Babel Depiction                                                                   O O O O O H H H H H H H H H H H H H H H H H H H H H H H H H H H H H H H H H H,mol-84588,354.481,,-3.322,,-0.282,,-0.952,C1
H6 C5 O1,C1=CC(=CC1)O,-0.484,,0,H6 C5 O1 - Open Babel Depiction                  O H H H H H H   H6 C5 O1,mol-26247,82.101,190.161,-3.524,193.201,-0.484,192.531,-1.154,Cs
H30 C18 O3,CC(C)(C)c1cc(c(c(c1)OCCOC)C(C)(C)C)OC,,,0,Multiple Molecules - Open Babel Depiction                                                           O O O H H H H H H H H H H H H H H H H H H H H H H H H H H H H H H,mol-85562,98.143,689.084,-691.704,692.124,-688.664,691.454,-689.334,C1
H34 C20 O5,CC(C)(C)c1ccc(c(c1OCOC)OCOCCOC)C(C)(C)C,-0.605,,0,Multiple Molecules - Open Babel Depiction                                                                   O O O O O H H H H H H H H H H H H H H H H H H H H H H H H H H H H H H H H H H,mol-84886,354.481,,-3.645,,-0.605,,-1.275,C1
H6 C8 O1,C#Cc1ccc(cc1)O,,,0,H6 C8 O1 - Open Babel Depiction                        O H H H H H H   H6 C8 O1,mol-24309,118.133,273.203,,276.243,,275.573,,Cs
H8 C8 O1,C#CC1=C(C=CC1)OC,,,0,H8 C8 O1 - Open Babel Depiction                         O H H H H H H H H   H8 C8 O1,mol-27140,120.149,276.357,,279.397,,278.727,,Cs
H46 C26 O6,CC(C)(C)c1ccc(c(c1OCCOCCCOC)C(C)(C)C)OCCOCCCOC,-0.507,,0,Multiple Molecules - Open Babel Depiction                                                                                      O O O O O O H H H H H H H H H H H H H H H H H H H H H H H H H H H H H H H H H H H H H H H H H H H H H H,mol-183878,227.32,,-3.547,,-0.507,,-1.177,C1
H28 C19 O7,CC(=O)c1c2CCCCc2c(c(c1O)O)OCCOCCOCCOC,0.551,,0,Multiple Molecules - Open Babel Depiction                                                                O O O O O O O H H H H H H H H H H H H H H H H H H H H H H H H H H H H,mol-83239,368.421,,-2.489,,0.551,,-0.119,C1
H26 C18 O8,COCCOCCOCCOc1c2CCCCc2c(c(c1O)O)C(=O)O,0.684,,0,Multiple Molecules - Open Babel Depiction                                                              O O O O O O O O H H H H H H H H H H H H H H H H H H H H H H H H H H,mol-83479,185.197,,-2.356,,0.684,,0.014,C1
H34 C20 O5,CC(C)(C)c1c(ccc(c1C(C)(C)C)OCOCCOC)OCOC,,,0,Multiple Molecules - Open Babel Depiction                                                                   O O O O O H H H H H H H H H H H H H H H H H H H H H H H H H H H H H H H H H H,mol-85273,354.481,6882.914,-4035.06,6885.954,-4032.02,6885.284,-4032.69,C1
H36 C21 O5,CC(C)(C)c1cc(cc(c1C(C)(C)C)OCCOC)OCOCCOC,,,0,Multiple Molecules - Open Babel Depiction                                                                      O O O O O H H H H H H H H H H H H H H H H H H H H H H H H H H H H H H H H H H H H,mol-84710,368.508,2085.016,-2087.346,2088.056,-2084.306,2087.386,-2084.976,C1
H6 C7 O2,[C]1(C(=O)[CH][CH][CH][CH][CH]1)O,2.329,-0.224,0,Multiple Molecules - Open Babel Depiction                      .  . O  . O  .  .  . H H H H H H,mol-41180,122.121,-3.264,-0.711,-0.224,2.329,-0.894,1.659,C1
H10 C20 O3,c12c3c(oc1C(=O)c1c(C2=O)cccc1)ccc1c3C=C[CH][CH]1,2.534,0.539,0,Multiple Molecules - Open Babel Depiction                                                    O O O  .  . H H H H H H H H H H,mol-43314,298.292,-2.501,-0.506,0.539,2.534,-0.131,1.864,C1
H10 C20 O3,c12c(C(=O)c3c(C2=O)cccc3)oc2c1ccc1c2C=C[CH][CH]1,2.527,0.65,0,Multiple Molecules - Open Babel Depiction                                                    O O O  .  . H H H H H H H H H H,mol-42315,298.292,-2.39,-0.513,0.65,2.527,-0.02,1.857,C1
H12 C22 O2,c12c(C(=O)c3c(C1=O)cc1c(c3)cccc1)cc1c(c2)[CH][CH]C=C1,5.949,0.903,0,Multiple Molecules - Open Babel Depiction                                                        O O  .  . H H H H H H H H H H H H,mol-42577,154.165,-2.137,2.909,0.903,5.949,0.233,5.279,C1
H6 C9 O3,O=C1O[C@@]2([CH][CH]1)C=CC(=O)C=C2,7.521,1.421,0,Multiple Molecules - Open Babel Depiction                                  O O  .  . O H H H H H H,mol-27538,54.047,-1.619,4.481,1.421,7.521,0.751,6.851,C1
H2 C8 O5,C1(=C(C(=O)C=[C])C=O)C(=O)OC1=O,,2.295,0,Multiple Molecules - Open Babel Depiction                          O O O O  .. C O H H,mol-58057,178.098,-0.745,,2.295,,1.625,,C1
H6 C9 O2,c12c(C=CC(=O)[CH][CH]1)coc2,1.624,2.835,0,Multiple Molecules - Open Babel Depiction                            .  . O O H H H H H H,mol-57875,146.143,-0.205,-1.416,2.835,1.624,2.165,0.954,C1
H12 C7 O3,C(=C/C=C/OC)(OC)OC,-0.114,3.184,0,Multiple Molecules - Open Babel Depiction                            O O O H H H H H H H H H H H H,mol-42320,144.168,0.144,-3.154,3.184,-0.114,2.514,-0.784,C1
H14 C16 O2,Oc1c2c(c(c3c1cccc3)O)ccc(c2)CC,0.832,3.425,0,Multiple Molecules - Open Babel Depiction                                              O O H H H H H H H H H H H H H H,mol-37721,119.141,0.385,-2.208,3.425,0.832,2.755,0.162,C1
H26 C16 O2,CC(C)(C)c1cc(c(cc1OC)C(C)(C)C)OC,-0.566,3.441,0,Multiple Molecules - Open Babel Depiction                                                    O O H H H H H H H H H H H H H H H H H H H H H H H H H H,mol-118813,125.188,0.401,-3.606,3.441,-0.566,2.771,-1.236,Ci
H36 C21 O4,CC(C)(C)c1cc(c(cc1OC)C(C)(C)C)OCCOCCCOC,,3.455,0,Multiple Molecules - Open Babel Depiction                                                                     O O O O H H H H H H H H H H H H H H H H H H H H H H H H H H H H H H H H H H H H,mol-186903,352.508,0.415,,3.455,,2.785,,C1
H8 C6 O4,COC1=C(OC)OC=CO1,-0.17,3.466,0,H8 C6 O4 - Open Babel Depiction                        O H H H H H H H H O O O   H8 C6 O4,mol-39333,144.125,0.426,-3.21,3.466,-0.17,2.796,-0.84,Cs
H30 C18 O3,CC(C)(C)c1cc(c(cc1OC)C(C)(C)C)OCCOC,-0.486,3.486,0,Multiple Molecules - Open Babel Depiction                                                           O O O H H H H H H H H H H H H H H H H H H H H H H H H H H H H H H,mol-84957,98.143,0.446,-3.526,3.486,-0.486,2.816,-1.156,C1
H10 C16 O4,c1(c2oc(cc2)c2occc2)oc(cc1)c1occc1,0.739,3.514,0,Multiple Molecules - Open Babel Depiction                                              O O O O H H H H H H H H H H,mol-43418,133.124,0.474,-2.301,3.514,0.739,2.844,0.069,C2h
H14 C12 O4,CC1(C)Oc2c(O1)cc1c(c2)OC(O1)(C)C,-0.457,3.52,0,Multiple Molecules - Open Babel Depiction                                        O O O O H H H H H H H H H H H H H H,mol-35674,111.119,0.48,-3.497,3.52,-0.457,2.85,-1.127,Cs
H10 C7 O3,COC1=C(OC)OC=CC1,-0.858,3.533,0,H10 C7 O3 - Open Babel Depiction                          H H H H H H H H H H O O O   H10 C7 O3,mol-12102,142.153,0.493,-3.898,3.533,-0.858,2.863,-1.528,C1
H14 C20 O1,c1(c2c(c(o1)c1ccccc1)cccc2)c1ccccc1,1.1,3.56,0,Multiple Molecules - Open Babel Depiction                                                     O H H H H H H H H H H H H H H,mol-35206,270.325,0.52,-1.94,3.56,1.1,2.89,0.43,C2
H10 C18 O2,c12c(cc3c(c1)cc1c(c3)occ1)cc1c(c2)occ1,1.098,3.562,0,Multiple Molecules - Open Babel Depiction                                                O O H H H H H H H H H H,mol-41968,129.135,0.522,-1.942,3.562,1.098,2.892,0.428,C2h
H22 C26 O4,c12c(c(c3c(c1C)oc1c(o3)cc3c(c1)CCC3)C)oc1c(o2)cc2c(c1)CCC2,-0.492,3.563,0,Multiple Molecules - Open Babel Depiction                                                                        O O O O H H H H H H H H H H H H H H H H H H H H H H,mol-64334,199.225,0.523,-3.532,3.563,-0.492,2.893,-1.162,Ci
H8 C6 O3,CC1=COC(=CO1)OC,-0.468,3.582,0,H8 C6 O3 - Open Babel Depiction                       O H H H H H H H H O O   H8 C6 O3,mol-39310,128.126,0.542,-3.508,3.582,-0.468,2.912,-1.138,Cs
H12 C7 O2,C1(OC(=C(O1)C)C)(C)C,-0.982,3.589,0,Multiple Molecules - Open Babel Depiction                           O O H H H H H H H H H H H H,mol-40635,128.169,0.549,-4.022,3.589,-0.982,2.919,-1.652,Cs
H32 C19 O4,CC(C)(C)c1cc(c(cc1OC)C(C)(C)C)OCOCCOC,,3.594,0,Multiple Molecules - Open Babel Depiction                                                               O O O O H H H H H H H H H H H H H H H H H H H H H H H H H H H H H H H H,mol-84960,324.455,0.554,2476.788,3.594,2479.828,2.924,2479.158,C1
H38 C22 O5,CC(C)(C)c1cc(c(cc1OCCOCCCOC)C(C)(C)C)OCOC,-0.433,3.594,0,Multiple Molecules - Open Babel Depiction                                                                         O O O O O H H H H H H H H H H H H H H H H H H H H H H H H H H H H H H H H H H H H H H,mol-84987,382.534,0.554,-3.473,3.594,-0.433,2.924,-1.103,C1
H26 C16 O2,CC(C)(C)c1c(ccc(c1C(C)(C)C)OC)OC,0.028,3.599,0,Multiple Molecules - Open Babel Depiction                                                    O O H H H H H H H H H H H H H H H H H H H H H H H H H H,mol-118944,125.188,0.559,-3.012,3.599,0.028,2.929,-0.642,C2
H20 C18 O2,c12c(cc(c(c1)OC)CCc1ccc(CC2)cc1)OC,-0.332,3.604,0,Multiple Molecules - Open Babel Depiction                                                     O O H H H H H H H H H H H H H H H H H H H H,mol-41442,134.175,0.564,-3.372,3.604,-0.332,2.934,-1.002,C1
H28 C17 O3,CC(C)(C)c1c(ccc(c1C(C)(C)C)OCOC)OC,0.042,3.611,0,Multiple Molecules - Open Babel Depiction                                                        O O O H H H H H H H H H H H H H H H H H H H H H H H H H H H H,mol-119238,280.402,0.571,-2.998,3.611,0.042,2.941,-0.628,C1
H10 C11 O3,COC1=C(c2ccccc2)OC=CO1,,3.625,0,H10 C11 O3 - Open Babel Depiction                                  O H H H H H H H H H H O O   H10 C11 O3,mol-39258,190.195,0.585,,3.625,,2.955,,C1
H8 C6 O3,CC1=C(OC)OC=CO1,-0.463,3.636,0,H8 C6 O3 - Open Babel Depiction                       O H H H H H H H H O O   H8 C6 O3,mol-39303,128.126,0.596,-3.503,3.636,-0.463,2.966,-1.133,C1
H8 C6 O3,COC1=C(O)OC=CC1,-0.652,3.652,0,H8 C6 O3 - Open Babel Depiction                       O H H H H H H H H O O   H8 C6 O3,mol-9790,128.126,0.612,-3.692,3.652,-0.652,2.982,-1.322,C1
H12 C12 O2,CCC1=COC(=CO1)c1ccccc1,0.327,3.652,0,H12 C12 O2 - Open Babel Depiction                                    O H H H H H H H H H H H H O   H12 C12 O2,mol-22139,188.222,0.612,-2.713,3.652,0.327,2.982,-0.343,C1
H16 C15 O3,Oc1c2c(c(c(c1CC=C(C)C)O)O)cccc2,0.279,3.655,0,Multiple Molecules - Open Babel Depiction                                              O O O H H H H H H H H H H H H H H H H,mol-19324,244.286,0.615,-2.761,3.655,0.279,2.985,-0.391,C1
H6 C5 O3,COC1=COC=CO1,-0.237,3.662,0,H6 C5 O3 - Open Babel Depiction                    O O O H H H H H H   H6 C5 O3,mol-39179,114.099,0.622,-3.277,3.662,-0.237,2.992,-0.907,Cs
H34 C20 O4,CC(C)(C)c1c(ccc(c1C(C)(C)C)OCCOC)OCCOC,0.008,3.665,0,Multiple Molecules - Open Babel Depiction                                                                  O O O O H H H H H H H H H H H H H H H H H H H H H H H H H H H H H H H H H H,mol-85157,169.241,0.625,-3.032,3.665,0.008,2.995,-0.662,C2
H36 C21 O4,CC(C)(C)c1c(ccc(c1C(C)(C)C)OCCOCCCOC)OC,0.023,3.666,0,Multiple Molecules - Open Babel Depiction                                                                     O O O O H H H H H H H H H H H H H H H H H H H H H H H H H H H H H H H H H H H H,mol-85355,352.508,0.626,-3.017,3.666,0.023,2.996,-0.647,C1
H20 C13 O1,[C@]12(C(=CC=C(O1)C)C(CCC2)(C)C)C,-0.308,3.669,0,Multiple Molecules - Open Babel Depiction                                          O H H H H H H H H H H H H H H H H H H H H,mol-57984,192.297,0.629,-3.348,3.669,-0.308,2.999,-0.978,C1
H34 C20 O4,CC(C)(C)c1cc(c(cc1OCCOC)C(C)(C)C)OCCOC,,3.672,0,Multiple Molecules - Open Babel Depiction                                                                  O O O O H H H H H H H H H H H H H H H H H H H H H H H H H H H H H H H H H H,mol-84933,169.241,0.632,14.633,3.672,17.673,3.002,17.003,C1
H30 C18 O4,CC(C)(C)c1cc(c(cc1OCOC)C(C)(C)C)OCOC,-0.417,3.695,0,Multiple Molecules - Open Babel Depiction                                                            O O O O H H H H H H H H H H H H H H H H H H H H H H H H H H H H H H,mol-84942,155.214,0.655,-3.457,3.695,-0.417,3.025,-1.087,Ci
H12 C8 O2,CCC1=C(CC=CO1)OC,-0.786,3.71,0,H12 C8 O2 - Open Babel Depiction                            H H H H H H H H H H H H O O   H12 C8 O2,mol-7355,140.18,0.67,-3.826,3.71,-0.786,3.04,-1.456,C1
H6 C5 O3,CC1=C(O)OC=CO1,-0.537,3.721,0,H6 C5 O3 - Open Babel Depiction                    O O O H H H H H H   H6 C5 O3,mol-39186,114.099,0.681,-3.577,3.721,-0.537,3.051,-1.207,C1
H34 C20 O5,CC(C)(C)c1cc(c(cc1OCOC)C(C)(C)C)OCOCCOC,,3.722,0,Multiple Molecules - Open Babel Depiction                                                                   O O O O O H H H H H H H H H H H H H H H H H H H H H H H H H H H H H H H H H H,mol-84891,354.481,0.682,2830.878,3.722,2833.918,3.052,2833.248,C1
H10 C8 O2,C=CC1=C(OC)OC=CC1,0.048,3.726,0,H10 C8 O2 - Open Babel Depiction                           H H H H H H H H H H O O   H10 C8 O2,mol-4392,138.164,0.686,-2.992,3.726,0.048,3.056,-0.622,C1
H6 C5 O4,COC1=COC(=CO1)O,-0.499,3.731,0,H6 C5 O4 - Open Babel Depiction                     O O O O H H H H H H   H6 C5 O4,mol-39220,130.099,0.691,-3.539,3.731,-0.499,3.061,-1.169,C1
H10 C7 O3,COC1=COC=C(C1)OC,-1.042,3.731,0,H10 C7 O3 - Open Babel Depiction                          H H H H H H H H H H O O O   H10 C7 O3,mol-12061,142.153,0.691,-4.082,3.731,-1.042,3.061,-1.712,C1
H10 C8 O2,C=CC1=C(CC=CO1)OC,0.123,3.732,0,H10 C8 O2 - Open Babel Depiction                           H H H H H H H H H H O O   H10 C8 O2,mol-6698,138.164,0.692,-2.917,3.732,0.123,3.062,-0.547,C1
H8 C6 O3,CCC1=COC=C(O)O1,-0.513,3.736,0,H8 C6 O3 - Open Babel Depiction                       O H H H H H H H H O O   H8 C6 O3,mol-39282,128.126,0.696,-3.553,3.736,-0.513,3.066,-1.183,C1
H6 C5 O3,C1=COC(=C(C1)O)O,-0.467,3.743,0,H6 C5 O3 - Open Babel Depiction                    O O O H H H H H H   H6 C5 O3,mol-8627,114.099,0.703,-3.507,3.743,-0.467,3.073,-1.137,C1
H6 C5 O3,CC1=COC=C(O)O1,-0.511,3.748,0,H6 C5 O3 - Open Babel Depiction                    O O O H H H H H H   H6 C5 O3,mol-39219,114.099,0.708,-3.551,3.748,-0.511,3.078,-1.181,C1
H12 C8 O1,CC[C@H]1C=CC=C1OC,-0.18,3.752,0,Multiple Molecules - Open Babel Depiction                            O H H H H H H H H H H H H,mol-186401,124.18,0.712,-3.22,3.752,-0.18,3.082,-0.85,C1
H10 C11 O3,COC1=COC=C(c2ccccc2)O1,0.173,3.754,0,H10 C11 O3 - Open Babel Depiction                                  O H H H H H H H H H H O O   H10 C11 O3,mol-39283,190.195,0.714,-2.867,3.754,0.173,3.084,-0.497,C1
H8 C6 O3,CCC1=COC(=CO1)O,-0.524,3.755,0,H8 C6 O3 - Open Babel Depiction                       O H H H H H H H H O O   H8 C6 O3,mol-39287,128.126,0.715,-3.564,3.755,-0.524,3.085,-1.194,C1
H14 C16 O2,O(C)c1c2c(c(c3c1cccc3)OC)cccc2,0.981,3.763,0,Multiple Molecules - Open Babel Depiction                                              O O H H H H H H H H H H H H H H,mol-21723,119.141,0.723,-2.059,3.763,0.981,3.093,0.311,C2v
H40 C23 O5,CC(C)(C)c1cc(cc(c1C(C)(C)C)OCCOC)OCCOCCCOC,-0.426,3.771,0,Multiple Molecules - Open Babel Depiction                                                                            O O O O O H H H H H H H H H H H H H H H H H H H H H H H H H H H H H H H H H H H H H H H H,mol-84681,396.561,0.731,-3.466,3.771,-0.426,3.101,-1.096,C1
H8 C10 O3,c1ccc(cc1)C1=COC=C(O)O1,0.094,3.772,0,H8 C10 O3 - Open Babel Depiction                               O H H H H H H H H O O   H8 C10 O3,mol-39420,176.169,0.732,-2.946,3.772,0.094,3.102,-0.576,C1
H6 C5 O3,CC1=COC(=CO1)O,-0.513,3.779,0,H6 C5 O3 - Open Babel Depiction                    O O O H H H H H H   H6 C5 O3,mol-39204,114.099,0.739,-3.553,3.779,-0.513,3.109,-1.183,Cs
H8 C10 O3,c1ccc(cc1)C1=C(O)OC=CO1,0.03,3.78,0,H8 C10 O3 - Open Babel Depiction                               O H H H H H H H H O O   H8 C10 O3,mol-39147,176.169,0.74,-3.01,3.78,0.03,3.11,-0.64,C1
H10 C11 O2,Oc1c2c(c(cc1C)O)cccc2,0.32,3.781,0,Multiple Molecules - Open Babel Depiction                                  O O H H H H H H H H H H,mol-20474,174.196,0.741,-2.72,3.781,0.32,3.111,-0.35,C1
H10 C6 O2,O1C(OC=C1C)(C)C,-0.994,3.781,0,Multiple Molecules - Open Babel Depiction                        O O H H H H H H H H H H,mol-57774,57.071,0.741,-4.034,3.781,-0.994,3.111,-1.664,C1
H12 C8 O2,CCC1=C(CC)OC=CO1,-0.988,3.781,0,H12 C8 O2 - Open Babel Depiction                            H H H H H H H H H H H H O O   H12 C8 O2,mol-39404,140.18,0.741,-4.028,3.781,-0.988,3.111,-1.658,Cs
H12 C8 O2,CCC1=C(OC)OC=CC1,-0.786,3.784,0,H12 C8 O2 - Open Babel Depiction                            H H H H H H H H H H H H O O   H12 C8 O2,mol-7064,140.18,0.744,-3.826,3.784,-0.786,3.114,-1.456,C1
H4 C4 O3,Oc1oc(cc1)O,-0.572,3.788,0,Multiple Molecules - Open Babel Depiction                  O O O H H H H,mol-27430,100.073,0.748,-3.612,3.788,-0.572,3.118,-1.242,C2
H12 C12 O2,c12c(c(ccc1OC)OC)cccc2,0.128,3.789,0,Multiple Molecules - Open Babel Depiction                                     O O H H H H H H H H H H H H,mol-41577,94.111,0.749,-2.912,3.789,0.128,3.119,-0.542,C2v
H18 C18 O4,c12c(cc3c(c1)cc(c(c3)OC)OC)cc(c(c2)OC)OC,0.698,3.789,0,Multiple Molecules - Open Babel Depiction                                                      O O O O H H H H H H H H H H H H H H H H H H,mol-41760,149.167,0.749,-2.342,3.789,0.698,3.119,0.028,C2
H10 C7 O2,CCC1=COC=C(C)O1,-0.668,3.794,0,H10 C7 O2 - Open Babel Depiction                         H H H H H H H H H H O O   H10 C7 O2,mol-39304,126.153,0.754,-3.708,3.794,-0.668,3.124,-1.338,C1
H10 C7 O2,CCC1=COC(=CO1)C,-0.714,3.796,0,H10 C7 O2 - Open Babel Depiction                         H H H H H H H H H H O O   H10 C7 O2,mol-39316,126.153,0.756,-3.754,3.796,-0.714,3.126,-1.384,C1
H32 C19 O4,CC(C)(C)c1c(ccc(c1C(C)(C)C)OCOC)OCCOC,0.057,3.797,0,Multiple Molecules - Open Babel Depiction                                                               O O O O H H H H H H H H H H H H H H H H H H H H H H H H H H H H H H H H,mol-85145,324.455,0.757,-2.983,3.797,0.057,3.127,-0.613,C1
H8 C7 O3,C=CC1=COC(=CO1)OC,0.171,3.799,0,H8 C7 O3 - Open Babel Depiction                         O H H H H H H H H O O   H8 C7 O3,mol-39371,140.137,0.759,-2.869,3.799,0.171,3.129,-0.499,C1
H6 C6 O3,C=CC1=C(O)OC=CO1,0.176,3.801,0,H6 C6 O3 - Open Babel Depiction                      O O O H H H H H H   H6 C6 O3,mol-39255,126.11,0.761,-2.864,3.801,0.176,3.131,-0.494,C1
H10 C8 O1,C=C[C@H]1C=CC=C1OC,-0.086,3.802,0,Multiple Molecules - Open Babel Depiction                           O H H H H H H H H H H,mol-89471,122.164,0.762,-3.126,3.802,-0.086,3.132,-0.756,C1