Formula,Smiles,EA (eV),IE (eV),Charge,Svg,Task Id,MW,Oxidation Hydrogen,Reduction Hydrogen,Oxidation Lithium,Reduction Lithium,Oxidation Magnesium,Reduction Magnesium,Point Group
H40 C23 O5,CC(C)(C)c1cc(c(cc1OCCOC)C(C)(C)C)OCCOCCCOC,-0.51,,0,Multiple Molecules - Open Babel Depiction                                                                            O O O O O H H H H H H H H H H H H H H H H H H H H H H H H H H H H H H H H H H H H H H H H,mol-186904,396.561,,-3.55,,-0.51,,-1.18,C1
H38 C22 O6,CC(C)(C)c1cc(c(cc1OCOCCOC)OCOCCOC)C(C)(C)C,,,0,Multiple Molecules - Open Babel Depiction                                                                          O O O O O O H H H H H H H H H H H H H H H H H H H H H H H H H H H H H H H H H H H H H H,mol-85048,199.267,,3902.445,,3905.485,,3904.815,C1
H36 C21 O4,CC(C)(C)c1cc(c(c(c1)OC)OCCOCCCOC)C(C)(C)C,-0.753,,0,Multiple Molecules - Open Babel Depiction                                                                     O O O O H H H H H H H H H H H H H H H H H H H H H H H H H H H H H H H H H H H H,mol-186909,352.508,,-3.793,,-0.753,,-1.423,C1
H38 C22 O5,CC(C)(C)c1c(ccc(c1C(C)(C)C)OCOC)OCCOCCCOC,0.048,,0,Multiple Molecules - Open Babel Depiction                                                                         O O O O O H H H H H H H H H H H H H H H H H H H H H H H H H H H H H H H H H H H H H H,mol-186910,382.534,,-2.992,,0.048,,-0.622,C1
H32 C20 O8,COCCOCCOCCOc1c2CCCCc2c(c(c1O)O)OCCOC,-0.475,,0,Multiple Molecules - Open Babel Depiction                                                                     O O O O O O O O H H H H H H H H H H H H H H H H H H H H H H H H H H H H H H H H,mol-84370,100.116,,-3.515,,-0.475,,-1.145,C1
H8 C6 O1,COC1=CC=CC1,-0.654,,0,H8 C6 O1 - Open Babel Depiction                     O H H H H H H H H   H8 C6 O1,mol-26513,96.127,221.206,-3.694,224.246,-0.654,223.576,-1.324,Cs
H10 C7 O1,CCC1=CC=C(C1)O,-0.647,,0,H10 C7 O1 - Open Babel Depiction                        H H H H H H H H H H O   H10 C7 O1,mol-26581,110.154,252.469,-3.687,255.509,-0.647,254.839,-1.317,C1
H6 C5 O2,C1=CC(=C(C1)O)O,-0.833,,0,H6 C5 O2 - Open Babel Depiction                   O O H H H H H H   H6 C5 O2,mol-26321,98.1,232.697,-3.873,235.737,-0.833,235.067,-1.503,Cs
H10 C7 O2,COC1=C(CC=C1)OC,-0.474,,0,H10 C7 O2 - Open Babel Depiction                         H H H H H H H H H H O O   H10 C7 O2,mol-26625,126.153,295.307,-3.514,298.347,-0.474,297.677,-1.144,C1
H8 C7 O1,C=CC1=C(C=CC1)O,0.14,,0,H8 C7 O1 - Open Babel Depiction                       O H H H H H H H H   H8 C7 O1,mol-26874,108.138,248.883,-2.9,251.923,0.14,251.253,-0.53,Cs
H8 C11 O4,c1ccc(cc1)C1=COC=C(C(=O)O)O1,0.885,,0,H8 C11 O4 - Open Babel Depiction                                  O H H H H H H H H O O O   H8 C11 O4,mol-39294,204.179,,-2.155,,0.885,,0.215,C1
H10 C8 O1,C=C[C@@H]1C=CC=C1OC,-0.453,,0,H10 C8 O1 - Open Babel Depiction                               H H H H H H H H H H O   H10 C8 O1,mol-25847,122.164,,-3.493,,-0.453,,-1.123,C1
H10 C7 O2,CO[C@H]1C=CC=C[C@@H]1O,,,0,H10 C7 O2 - Open Babel Depiction                               H H H H H H H H H H O O   H10 C7 O2,mol-24419,126.153,295.78,-299.252,298.82,-296.212,298.15,-296.882,C1
H12 C7 O3,C1CCC(CC1)(C(=O)O)O,-0.595,,0,H12 C7 O3 - Open Babel Depiction                           H H H H H H H H H H H H O O O   H12 C7 O3,mol-25419,144.168,344.097,-3.635,347.137,-0.595,346.467,-1.265,C1v
H10 C9 O2,C=C[C@H]1C=CC=C[C@@H]1C(=O)O,,,0,H10 C9 O2 - Open Babel Depiction                                   O H H H H H H H H H H O   H10 C9 O2,mol-23692,150.174,351.736,-354.7,354.776,-351.66,354.106,-352.33,C1
H10 C8 O2,CC[C@@H]1C=CC=C1C(=O)O,,,0,H10 C8 O2 - Open Babel Depiction                                H H H H H H H H H H O O   H10 C8 O2,mol-25910,138.164,324.465,-326.558,327.505,-323.518,326.835,-324.188,C1
H8 C7 O1,Cc1ccc(cc1)O,,,0,H8 C7 O1 - Open Babel Depiction                       O H H H H H H H H   H8 C7 O1,mol-24081,108.138,249.491,-254.347,252.531,-251.307,251.861,-251.977,Cs
H10 C8 O1,Cc1ccc(cc1)OC,,,0,H10 C8 O1 - Open Babel Depiction                          H H H H H H H H H H O   H10 C8 O1,mol-24117,122.164,280.739,-285.868,283.779,-282.828,283.109,-283.498,Cs
H8 C7 O2,COc1ccc(cc1)O,-0.713,,0,H8 C7 O2 - Open Babel Depiction                        O H H H H H H H H O   H8 C7 O2,mol-24120,124.137,292.266,-3.753,295.306,-0.713,294.636,-1.383,Cs
H10 C11 O1,c1ccc(cc1)C1=C(C=CC1)O,0.084,,0,H10 C11 O1 - Open Babel Depiction                                O H H H H H H H H H H   H10 C11 O1,mol-26033,158.197,363.712,-2.956,366.752,0.084,366.082,-0.586,Cs
H10 C7 O1,CC1=CC=C(C1)OC,-0.684,,0,H10 C7 O1 - Open Babel Depiction                        H H H H H H H H H H O   H10 C7 O1,mol-26630,110.154,252.391,-3.724,255.431,-0.684,254.761,-1.354,Cs
H10 C7 O1,CC1=C(C=CC1)OC,-0.584,,0,H10 C7 O1 - Open Babel Depiction                        H H H H H H H H H H O   H10 C7 O1,mol-26714,110.154,252.465,-3.624,255.505,-0.584,254.835,-1.254,Cs
H14 C7 O2,CO[C@H]1CCCC[C@@H]1O,,,0,H14 C7 O2 - Open Babel Depiction                                 H H H H H H H H H H H H H H O O   H14 C7 O2,mol-24604,130.185,304.025,-310.43,307.065,-307.39,306.395,-308.06,C1
H8 C8 O1,C#CC1=CC=C(C1)OC,0.267,,0,H8 C8 O1 - Open Babel Depiction                         O H H H H H H H H   H8 C8 O1,mol-27148,120.149,276.222,-2.773,279.262,0.267,278.592,-0.403,Cs
H12 C8 O1,CCC1=C(CC=C1)OC,-0.588,,0,H12 C8 O1 - Open Babel Depiction                           H H H H H H H H H H H H O   H12 C8 O1,mol-27155,124.18,,-3.628,,-0.588,,-1.258,C1
H12 C9 O1,CCc1ccc(cc1)OC,,,0,H12 C9 O1 - Open Babel Depiction                             H H H H H H H H H H H H O   H12 C9 O1,mol-24393,136.191,312.122,-317.276,315.162,-314.236,314.492,-314.906,C1
H14 C8 O3,COC1(CCCCC1)C(=O)O,-0.425,,0,H14 C8 O3 - Open Babel Depiction                              H H H H H H H H H H H H H H O O O   H14 C8 O3,mol-25394,158.195,375.263,-3.465,378.303,-0.425,377.633,-1.095,C1
H10 C11 O1,c1ccc(cc1)C1=C(CC=C1)O,,,0,H10 C11 O1 - Open Babel Depiction                                O H H H H H H H H H H   H10 C11 O1,mol-26054,158.197,363.561,-368.05,366.601,-365.01,365.931,-365.68,C1
H10 C7 O1,CC1=C(CC=C1)OC,-0.437,,0,H10 C7 O1 - Open Babel Depiction                        H H H H H H H H H H O   H10 C7 O1,mol-26639,110.154,252.355,-3.477,255.395,-0.437,254.725,-1.107,Cs
H12 C8 O1,CCC1=CC=C(C1)OC,-0.668,,0,H12 C8 O1 - Open Babel Depiction                           H H H H H H H H H H H H O   H12 C8 O1,mol-27025,124.18,283.828,-3.708,286.868,-0.668,286.198,-1.338,C1
H8 C7 O2,CC1=C(CC=C1)C(=O)O,,,0,H8 C7 O2 - Open Babel Depiction                        O H H H H H H H H O   H8 C7 O2,mol-26884,124.137,292.858,-295.259,295.898,-292.219,295.228,-292.889,Cs
H8 C7 O1,C=CC1=CC=C(C1)O,0.054,,0,H8 C7 O1 - Open Babel Depiction                       O H H H H H H H H   H8 C7 O1,mol-26950,108.138,248.671,-2.986,251.711,0.054,251.041,-0.616,Cs
H10 C8 O1,C=CC1=C(CC=C1)OC,,,0,H10 C8 O1 - Open Babel Depiction                          H H H H H H H H H H O   H10 C8 O1,mol-26993,122.164,280.117,-284.231,283.157,-281.191,282.487,-281.861,Cs
H10 C8 O2,CCC1=C(CC=C1)C(=O)O,,,0,H10 C8 O2 - Open Babel Depiction                           H H H H H H H H H H O O   H10 C8 O2,mol-26997,138.164,323.99,-326.507,327.03,-323.467,326.36,-324.137,C1
H8 C8 O2,C=CC1=C(CC=C1)C(=O)O,,,0,H8 C8 O2 - Open Babel Depiction                          O H H H H H H H H O   H8 C8 O2,mol-27168,136.148,320.346,-322.559,323.386,-319.519,322.716,-320.189,C1
H12 C12 O1,COC1=CC=C(C1)c1ccccc1,0.094,,0,H12 C12 O1 - Open Babel Depiction                                   O H H H H H H H H H H H H   H12 C12 O1,mol-26076,172.223,394.81,-2.946,397.85,0.094,397.18,-0.576,Cs
H10 C11 O1,c1ccc(cc1)C1=CC=C(C1)O,0.111,,0,H10 C11 O1 - Open Babel Depiction                                O H H H H H H H H H H   H10 C11 O1,mol-26105,158.197,363.426,-2.929,366.466,0.111,365.796,-0.559,Cs
H14 C8 O2,CC[C@@H]1CCC[C@@H]1C(=O)O,-0.553,,0,H14 C8 O2 - Open Babel Depiction                                   H H H H H H H H H H H H H H O O   H14 C8 O2,mol-27829,142.196,,-3.593,,-0.553,,-1.223,C1
H8 C7 O1,COc1ccccc1,,,0,H8 C7 O1 - Open Babel Depiction                       O H H H H H H H H   H8 C7 O1,mol-24100,108.138,249.49,,252.53,,251.86,,Cs
H6 C5 O2,C1=C(CC(=C1)O)O,-1.035,,0,H6 C5 O2 - Open Babel Depiction                   O O H H H H H H   H6 C5 O2,mol-26215,98.1,232.591,-4.075,235.631,-1.035,234.961,-1.705,C2v
H6 C6 O2,C1=CCC(=C1)C(=O)O,,,0,H6 C6 O2 - Open Babel Depiction                     O O H H H H H H   H6 C6 O2,mol-26464,110.111,261.585,,264.625,,263.955,,Cs
H12 C7 O2,C[C@@H]1CC[C@H](C1)C(=O)O,,,0,H12 C7 O2 - Open Babel Depiction                               H H H H H H H H H H H H O O   H12 C7 O2,mol-27389,128.169,,-304.511,,-301.471,,-302.141,C1
H12 C8 O2,C=C[C@@H]1[C@H](C=C)OCCO1,-0.535,,0,H12 C8 O2 - Open Babel Depiction                                  H H H H H H H H H H H H O O   H12 C8 O2,mol-39132,140.18,,-3.575,,-0.535,,-1.205,C1
H8 C6 O2,COC1=C(CC=C1)O,-0.5,,0,H8 C6 O2 - Open Babel Depiction                      O O H H H H H H H H   H8 C6 O2,mol-26542,112.127,263.978,-3.54,267.018,-0.5,266.348,-1.17,C1
H6 C6 O2,C1=C[C@H](C=C1)C(=O)O,,,0,H6 C6 O2 - Open Babel Depiction                          O O H H H H H H   H6 C6 O2,mol-26427,110.111,261.496,,264.536,,263.866,,C1
H8 C6 O1,CC1=CC=C(C1)O,-0.677,,0,H8 C6 O1 - Open Babel Depiction                     O H H H H H H H H   H8 C6 O1,mol-26523,96.127,221.035,-3.717,224.075,-0.677,223.405,-1.347,Cs
H8 C6 O2,COC1=C(C=CC1)O,-0.608,,0,H8 C6 O2 - Open Babel Depiction                      O O H H H H H H H H   H8 C6 O2,mol-26556,112.127,263.959,-3.648,266.999,-0.608,266.329,-1.278,Cs
H6 C7 O1,C#CC1=C(C=CC1)O,,,0,H6 C7 O1 - Open Babel Depiction                      O H H H H H H   H6 C7 O1,mol-26769,106.122,245.143,-248.472,248.183,-245.432,247.513,-246.102,Cs
H6 C7 O1,C#CC1=CC=C(C1)O,,,0,H6 C7 O1 - Open Babel Depiction                      O H H H H H H   H6 C7 O1,mol-27093,106.122,244.859,-248.489,247.899,-245.449,247.229,-246.119,Cs
H8 C9 O1,C#C[C@@H]1C=COC(=C1)C=C,0.3,,0,H8 C9 O1 - Open Babel Depiction                           O H H H H H H H H   H8 C9 O1,mol-8241,132.159,,-2.74,,0.3,,-0.37,C1
H8 C6 O1,CO[C@@H]1C=CC=C1,0.256,,0,H8 C6 O1 - Open Babel Depiction                          O H H H H H H H H   H8 C6 O1,mol-26527,96.127,221.229,-2.784,224.269,0.256,223.599,-0.414,C1
H10 C7 O2,COC1=CC=C(C1)OC,-0.694,,0,H10 C7 O2 - Open Babel Depiction                         H H H H H H H H H H O O   H10 C7 O2,mol-26761,126.153,295.218,-3.734,298.258,-0.694,297.588,-1.364,C1
H36 C21 O4,CC(C)(C)c1cc(c(cc1OC)OCCOCCCOC)C(C)(C)C,-0.817,,0,Multiple Molecules - Open Babel Depiction                                                                     O O O O H H H H H H H H H H H H H H H H H H H H H H H H H H H H H H H H H H H H,mol-186950,352.508,,-3.857,,-0.817,,-1.487,C1
H38 C22 O6,CC(C)(C)c1c(ccc(c1C(C)(C)C)OCOCCOC)OCOCCOC,0.111,,0,Multiple Molecules - Open Babel Depiction                                                                          O O O O O O H H H H H H H H H H H H H H H H H H H H H H H H H H H H H H H H H H H H H H,mol-85168,199.267,,-2.929,,0.111,,-0.559,C1
H34 C20 O5,CC(C)(C)c1cc(c(cc1C(C)(C)C)OCOCCOC)OCOC,-0.676,,0,Multiple Molecules - Open Babel Depiction                                                                   O O O O O H H H H H H H H H H H H H H H H H H H H H H H H H H H H H H H H H H,mol-84617,354.481,,-3.716,,-0.676,,-1.346,C1
H14 C7 O1,CC[C@@H]1CCC[C@@H]1O,-1.032,,0,H14 C7 O1 - Open Babel Depiction                                     H H H H H H H H H H H H H H O   H14 C7 O1,mol-27466,114.185,261.176,-4.072,264.216,-1.032,263.546,-1.702,C1
H36 C21 O4,CC(C)(C)c1cc(c(c(c1)OCCOCCCOC)OC)C(C)(C)C,-0.759,,0,Multiple Molecules - Open Babel Depiction                                                                     O O O O H H H H H H H H H H H H H H H H H H H H H H H H H H H H H H H H H H H H,mol-85058,352.508,,-3.799,,-0.759,,-1.429,C1
H34 C20 O5,CC(C)(C)c1cc(c(c(c1)OCOCCOC)OCOC)C(C)(C)C,-0.663,,0,Multiple Molecules - Open Babel Depiction                                                                   O O O O O H H H H H H H H H H H H H H H H H H H H H H H H H H H H H H H H H H,mol-85115,354.481,,-3.703,,-0.663,,-1.333,C1
H36 C21 O4,CC(C)(C)c1cc(c(cc1C(C)(C)C)OCCOCCCOC)OC,-0.615,,0,Multiple Molecules - Open Babel Depiction                                                                     O O O O H H H H H H H H H H H H H H H H H H H H H H H H H H H H H H H H H H H H,mol-186883,352.508,,-3.655,,-0.615,,-1.285,C1
H32 C19 O4,CC(C)(C)c1ccc(c(c1OC)OCOCCOC)C(C)(C)C,-0.678,,0,Multiple Molecules - Open Babel Depiction                                                               O O O O H H H H H H H H H H H H H H H H H H H H H H H H H H H H H H H H,mol-84956,324.455,,-3.718,,-0.678,,-1.348,C1
H38 C22 O5,CC(C)(C)c1ccc(c(c1OCCOCCCOC)OCOC)C(C)(C)C,-0.739,,0,Multiple Molecules - Open Babel Depiction                                                                         O O O O O H H H H H H H H H H H H H H H H H H H H H H H H H H H H H H H H H H H H H H,mol-84967,382.534,,-3.779,,-0.739,,-1.409,C1
H40 C23 O5,CC(C)(C)c1cc(c(c(c1)OCCOC)OCCOCCCOC)C(C)(C)C,-0.793,,0,Multiple Molecules - Open Babel Depiction                                                                            O O O O O H H H H H H H H H H H H H H H H H H H H H H H H H H H H H H H H H H H H H H H H,mol-186914,396.561,,-3.833,,-0.793,,-1.463,C1
H26 C17 O4,CC(C)(C)c1c2CCCCc2c(c(c1O)O)OCCOC,-0.197,,0,Multiple Molecules - Open Babel Depiction                                                        O O O O H H H H H H H H H H H H H H H H H H H H H H H H H H,mol-118968,294.386,,-3.237,,-0.197,,-0.867,C1
H36 C21 O5,CC(C)(C)c1cc(c(cc1C(C)(C)C)OCOCCOC)OCCOC,,,0,Multiple Molecules - Open Babel Depiction                                                                      O O O O O H H H H H H H H H H H H H H H H H H H H H H H H H H H H H H H H H H H H,mol-84883,368.508,-2192.953,-770.639,-2189.913,-767.599,-2190.583,-768.269,C1
H8 C7 O2,C[C@@H]1C=CC=C1C(=O)O,,,0,H8 C7 O2 - Open Babel Depiction                             O H H H H H H H H O   H8 C7 O2,mol-25788,124.137,292.971,,296.011,,295.341,,C1
H8 C7 O1,C=C[C@@H]1C=CC=C1O,-0.408,,0,H8 C7 O1 - Open Babel Depiction                            O H H H H H H H H   H8 C7 O1,mol-25833,108.138,,-3.448,,-0.408,,-1.078,C1
H38 C22 O6,CC(C)(C)c1ccc(c(c1C(C)(C)C)OCOCCOC)OCOCCOC,-0.208,,0,Multiple Molecules - Open Babel Depiction                                                                          O O O O O O H H H H H H H H H H H H H H H H H H H H H H H H H H H H H H H H H H H H H H,mol-84672,199.267,-1857.81,-3.248,-1854.77,-0.208,-1855.44,-0.878,C1
H36 C21 O5,CC(C)(C)c1cc(c(cc1OCCOC)C(C)(C)C)OCOCCOC,,,0,Multiple Molecules - Open Babel Depiction                                                                      O O O O O H H H H H H H H H H H H H H H H H H H H H H H H H H H H H H H H H H H H,mol-85030,368.508,2494.587,-1386.792,2497.627,-1383.752,2496.957,-1384.422,C1
H6 C5 O1,C1=CCC(=C1)O,-0.633,,0,H6 C5 O1 - Open Babel Depiction                  O H H H H H H   H6 C5 O1,mol-26344,82.101,189.88,-3.673,192.92,-0.633,192.25,-1.303,Cs
H6 C7 O1,C#CC1=C(CC=C1)O,,,0,H6 C7 O1 - Open Babel Depiction                      O H H H H H H   H6 C7 O1,mol-26782,106.122,244.937,,247.977,,247.307,,Cs
H38 C22 O6,CC(C)(C)c1cc(c(c(c1)OCOCCOC)OCOCCOC)C(C)(C)C,,,0,Multiple Molecules - Open Babel Depiction                                                                          O O O O O O H H H H H H H H H H H H H H H H H H H H H H H H H H H H H H H H H H H H H H,mol-85147,199.267,1806.166,-1808.478,1809.206,-1805.438,1808.536,-1806.108,C1
H8 C6 O6,C1COC(CO1)(C(=O)O)C(=O)O,0.53,,0,H8 C6 O6 - Open Babel Depiction                          O H H H H H H H H O O O O O   H8 C6 O6,mol-39091,176.124,,-2.51,,0.53,,-0.14,C1
H4 C4 O4,C1=COC(=C(O)O1)O,-0.083,,0,H4 C4 O4 - Open Babel Depiction                  O O O O H H H H   H4 C4 O4,mol-39479,116.072,287.913,-3.123,290.953,-0.083,290.283,-0.753,C1
H8 C6 O1,CC1=C(CC=C1)O,,,0,H8 C6 O1 - Open Babel Depiction                     O H H H H H H H H   H8 C6 O1,mol-26518,96.127,221.057,,224.097,,223.427,,Cs
H10 C6 O2,C1CCC(C1)C(=O)O,-0.483,,0,H10 C6 O2 - Open Babel Depiction                       H H H H H H H H H H O O   H10 C6 O2,mol-27838,114.142,,-3.523,,-0.483,,-1.153,C1
H10 C8 O1,C=CC1=CC=C(C1)OC,,,0,H10 C8 O1 - Open Babel Depiction                          H H H H H H H H H H O   H10 C8 O1,mol-27186,122.164,280.027,,283.067,,282.397,,Cs
H8 C7 O1,C=CC1=C(CC=C1)O,,,0,H8 C7 O1 - Open Babel Depiction                       O H H H H H H H H   H8 C7 O1,mol-26885,108.138,248.745,,251.785,,251.115,,Cs
H10 C13 O1,C#CC1=CCC(=CO1)c1ccccc1,0.396,,0,H10 C13 O1 - Open Babel Depiction                                    H H H H H H H H H H O   H10 C13 O1,mol-7910,182.218,,-2.644,,0.396,,-0.274,C1
H10 C7 O2,C#C[C@H]1[C@@H](C)OCCO1,-0.139,,0,H10 C7 O2 - Open Babel Depiction                          H H H H H H H H H H O O   H10 C7 O2,mol-39082,126.153,,-3.179,,-0.139,,-0.809,C1
H36 C21 O5,CC(C)(C)c1cc(cc(c1C(C)(C)C)OCOCCOC)OCCOC,,,0,Multiple Molecules - Open Babel Depiction                                                                      O O O O O H H H H H H H H H H H H H H H H H H H H H H H H H H H H H H H H H H H H,mol-84777,368.508,-3853.718,-2367.024,-3850.678,-2363.984,-3851.348,-2364.654,C1
H8 C6 O2,COC1=CC=C(C1)O,-1.064,,0,H8 C6 O2 - Open Babel Depiction                      O O H H H H H H H H   H8 C6 O2,mol-26506,112.127,263.969,-4.104,267.009,-1.064,266.339,-1.734,Cs
H30 C18 O3,CC(C)(C)c1cc(c(cc1C(C)(C)C)OCCOC)OC,,,0,Multiple Molecules - Open Babel Depiction                                                           O O O H H H H H H H H H H H H H H H H H H H H H H H H H H H H H H,mol-84708,98.143,3521.71,-3524.023,3524.75,-3520.983,3524.08,-3521.653,C1
H10 C7 O1,CCC1=C(CC=C1)O,-0.633,,0,H10 C7 O1 - Open Babel Depiction                        H H H H H H H H H H O   H10 C7 O1,mol-26618,110.154,252.479,-3.673,255.519,-0.633,254.849,-1.303,C1
H34 C20 O5,CC(C)(C)c1cc(cc(c1OCOC)C(C)(C)C)OCOCCOC,-0.582,,0,Multiple Molecules - Open Babel Depiction                                                                   O O O O O H H H H H H H H H H H H H H H H H H H H H H H H H H H H H H H H H H,mol-84898,354.481,,-3.622,,-0.582,,-1.252,C1
H40 C23 O5,CC(C)(C)c1cc(c(c(c1)OCCOCCCOC)OCCOC)C(C)(C)C,-0.757,,0,Multiple Molecules - Open Babel Depiction                                                                            O O O O O H H H H H H H H H H H H H H H H H H H H H H H H H H H H H H H H H H H H H H H H,mol-186929,396.561,,-3.797,,-0.757,,-1.427,C1
H12 C12 O6,C1CC(Cc2cc(c(cc12)O)O)(C(=O)O)C(=O)O,0.445,,0,Multiple Molecules - Open Babel Depiction                                         O O O O O O H H H H H H H H H H H H,mol-109897,42.037,,-2.595,,0.445,,-0.225,C1
H32 C19 O4,CC(C)(C)c1cc(c(cc1OCCOC)C(C)(C)C)OCOC,,,0,Multiple Molecules - Open Babel Depiction                                                               O O O O H H H H H H H H H H H H H H H H H H H H H H H H H H H H H H H H,mol-84965,324.455,1399.899,-1402.74,1402.939,-1399.7,1402.269,-1400.37,C1
H42 C24 O6,CC(C)(C)c1cc(c(cc1OCCOCCCOC)OCOCCOC)C(C)(C)C,,,0,Multiple Molecules - Open Babel Depiction                                                                                O O O O O O H H H H H H H H H H H H H H H H H H H H H H H H H H H H H H H H H H H H H H H H H H,mol-85092,71.098,,3396.869,,3399.909,,3399.239,C1
H28 C18 O7,COCCOCCOCCOc1c2CCCCc2c(c(c1O)O)OC,-0.456,,0,Multiple Molecules - Open Babel Depiction                                                              O O O O O O O H H H H H H H H H H H H H H H H H H H H H H H H H H H H,mol-83524,356.411,,-3.496,,-0.456,,-1.126,C1